 Default is to use a total of   8 processors:
                                8 via shared-memory
                                1 via Linda
 Entering Link 1 = D:\study\G16W\l1.exe PID=      3024.
  
 Copyright (c) 1988-2017, Gaussian, Inc.  All Rights Reserved.
  
 This is part of the Gaussian(R) 16 program.  It is based on
 the Gaussian(R) 09 system (copyright 2009, Gaussian, Inc.),
 the Gaussian(R) 03 system (copyright 2003, Gaussian, Inc.),
 the Gaussian(R) 98 system (copyright 1998, Gaussian, Inc.),
 the Gaussian(R) 94 system (copyright 1995, Gaussian, Inc.),
 the Gaussian 92(TM) system (copyright 1992, Gaussian, Inc.),
 the Gaussian 90(TM) system (copyright 1990, Gaussian, Inc.),
 the Gaussian 88(TM) system (copyright 1988, Gaussian, Inc.),
 the Gaussian 86(TM) system (copyright 1986, Carnegie Mellon
 University), and the Gaussian 82(TM) system (copyright 1983,
 Carnegie Mellon University). Gaussian is a federally registered
 trademark of Gaussian, Inc.
  
 This software contains proprietary and confidential information,
 including trade secrets, belonging to Gaussian, Inc.
  
 This software is provided under written license and may be
 used, copied, transmitted, or stored only in accord with that
 written license.
  
 The following legend is applicable only to US Government
 contracts under FAR:
  
                    RESTRICTED RIGHTS LEGEND
  
 Use, reproduction and disclosure by the US Government is
 subject to restrictions as set forth in subparagraphs (a)
 and (c) of the Commercial Computer Software - Restricted
 Rights clause in FAR 52.227-19.
  
 Gaussian, Inc.
 340 Quinnipiac St., Bldg. 40, Wallingford CT 06492
  
  
 ---------------------------------------------------------------
 Warning -- This program may not be used in any manner that
 competes with the business of Gaussian, Inc. or will provide
 assistance to any competitor of Gaussian, Inc.  The licensee
 of this program is prohibited from giving any competitor of
 Gaussian, Inc. access to this program.  By using this program,
 the user acknowledges that Gaussian, Inc. is engaged in the
 business of creating and licensing software in the field of
 computational chemistry and represents and warrants to the
 licensee that it is not a competitor of Gaussian, Inc. and that
 it will not use this program in any manner prohibited above.
 ---------------------------------------------------------------
  

 Cite this work as:
 Gaussian 16, Revision B.01,
 M. J. Frisch, G. W. Trucks, H. B. Schlegel, G. E. Scuseria, 
 M. A. Robb, J. R. Cheeseman, G. Scalmani, V. Barone, 
 G. A. Petersson, H. Nakatsuji, X. Li, M. Caricato, A. V. Marenich, 
 J. Bloino, B. G. Janesko, R. Gomperts, B. Mennucci, H. P. Hratchian, 
 J. V. Ortiz, A. F. Izmaylov, J. L. Sonnenberg, D. Williams-Young, 
 F. Ding, F. Lipparini, F. Egidi, J. Goings, B. Peng, A. Petrone, 
 T. Henderson, D. Ranasinghe, V. G. Zakrzewski, J. Gao, N. Rega, 
 G. Zheng, W. Liang, M. Hada, M. Ehara, K. Toyota, R. Fukuda, 
 J. Hasegawa, M. Ishida, T. Nakajima, Y. Honda, O. Kitao, H. Nakai, 
 T. Vreven, K. Throssell, J. A. Montgomery, Jr., J. E. Peralta, 
 F. Ogliaro, M. J. Bearpark, J. J. Heyd, E. N. Brothers, K. N. Kudin, 
 V. N. Staroverov, T. A. Keith, R. Kobayashi, J. Normand, 
 K. Raghavachari, A. P. Rendell, J. C. Burant, S. S. Iyengar, 
 J. Tomasi, M. Cossi, J. M. Millam, M. Klene, C. Adamo, R. Cammi, 
 J. W. Ochterski, R. L. Martin, K. Morokuma, O. Farkas, 
 J. B. Foresman, and D. J. Fox, Gaussian, Inc., Wallingford CT, 2016.
 
 ******************************************
 Gaussian 16:  EM64W-G16RevB.01 16-Dec-2017
                13-Apr-2025 
 ******************************************
 %chk=D:\CH3Cl.chk
 ---------------------------------------------------
 # wb97xd/def2TZVP TD(nstates=50) IOp(9/40=4) nosymm
 ---------------------------------------------------
 1/38=1,172=1/1;
 2/12=2,15=1,17=6,18=5,40=1/2;
 3/5=44,7=101,11=9,25=1,30=1,74=-58/1,2,3,8;
 4//1;
 5/5=2,38=5/2;
 8/6=1,10=1,108=50/1;
 9/40=4,41=50,42=1,70=2/14;
 6/7=2,8=2,9=2,10=2/1;
 99/5=1,9=1/99;
 ------------------------------
 Opted at B3LYP/def2-TZVP level
 ------------------------------
 Symbolic Z-matrix:
 Charge =  0 Multiplicity = 1
 C                     0.        0.       -1.13395 
 H                     0.        1.03085  -1.47626 
 H                    -0.89274  -0.51543  -1.47626 
 H                     0.89274  -0.51543  -1.47626 
 Cl                    0.        0.        0.66073 
 
                          Input orientation:                          
 ---------------------------------------------------------------------
 Center     Atomic      Atomic             Coordinates (Angstroms)
 Number     Number       Type             X           Y           Z
 ---------------------------------------------------------------------
      1          6           0        0.000000    0.000000   -1.133952
      2          1           0        0.000000    1.030851   -1.476258
      3          1           0       -0.892743   -0.515426   -1.476258
      4          1           0        0.892743   -0.515426   -1.476258
      5         17           0        0.000000    0.000000    0.660734
 ---------------------------------------------------------------------
                    Distance matrix (angstroms):
                    1          2          3          4          5
     1  C    0.000000
     2  H    1.086199   0.000000
     3  H    1.086199   1.785487   0.000000
     4  H    1.086199   1.785487   1.785486   0.000000
     5  Cl   1.794686   2.372633   2.372633   2.372633   0.000000
 Symmetry turned off by external request.
 Stoichiometry    CH3Cl
 Framework group  C3[C3(CCl),X(H3)]
 Deg. of freedom     3
 Full point group                 C3      NOp   3
 Rotational constants (GHZ):         157.2964579          13.1659960          13.1659955
 Standard basis: def2TZVP (5D, 7F)
    86 basis functions,   144 primitive gaussians,    96 cartesian basis functions
    13 alpha electrons       13 beta electrons
       nuclear repulsion energy        51.1086381841 Hartrees.
 NAtoms=    5 NActive=    5 NUniq=    5 SFac= 1.00D+00 NAtFMM=   60 NAOKFM=F Big=F
 Integral buffers will be    131072 words long.
 Raffenetti 1 integral format.
 Two-electron integral symmetry is turned off.
 Nuclear repulsion after empirical dispersion term =       51.1081879968 Hartrees.
 One-electron integrals computed using PRISM.
   1 Symmetry operations used in ECPInt.
 ECPInt:  NShTT=     666 NPrTT=    2212 LenC2=     666 LenP2D=    1966.
 LDataN:  DoStor=T MaxTD1= 6 Len=  172
 NBasis=    86 RedAO= T EigKep=  1.85D-03  NBF=    86
 NBsUse=    86 1.00D-06 EigRej= -1.00D+00 NBFU=    86
 ExpMin= 9.52D-02 ExpMax= 6.95D+04 ExpMxC= 2.37D+03 IAcc=3 IRadAn=         5 AccDes= 0.00D+00
 Harris functional with IExCor= 4639 and IRadAn=       5 diagonalized for initial guess.
 HarFok:  IExCor= 4639 AccDes= 0.00D+00 IRadAn=         5 IDoV= 1 UseB2=F ITyADJ=14
 ICtDFT=  3500011 ScaDFX=  1.000000  1.000000  1.000000  1.000000
 FoFCou: FMM=F IPFlag=           0 FMFlag=      100000 FMFlg1=           0
         NFxFlg=           0 DoJE=T BraDBF=F KetDBF=T FulRan=T
         wScrn=  0.000000 ICntrl=       500 IOpCl=  0 I1Cent=   200000004 NGrid=           0
         NMat0=    1 NMatS0=      1 NMatT0=    0 NMatD0=    1 NMtDS0=    0 NMtDT0=    0
 Symmetry not used in FoFCou.
 Keep R1 ints in memory in canonical form, NReq=21378199.
 Requested convergence on RMS density matrix=1.00D-08 within 128 cycles.
 Requested convergence on MAX density matrix=1.00D-06.
 Requested convergence on             energy=1.00D-06.
 No special actions if energy rises.
 Integral accuracy reduced to 1.0D-05 until final iterations.
 Initial convergence to 1.0D-05 achieved.  Increase integral accuracy.
 SCF Done:  E(RwB97XD) =  -500.124532416     A.U. after   12 cycles
            NFock= 12  Conv=0.85D-08     -V/T= 2.0018
 DoSCS=F DFT=T ScalE2(SS,OS)=  1.000000  1.000000
 ExpMin= 9.52D-02 ExpMax= 6.95D+04 ExpMxC= 2.37D+03 IAcc=3 IRadAn=         5 AccDes= 0.00D+00
 HarFok:  IExCor=  205 AccDes= 0.00D+00 IRadAn=         5 IDoV=-2 UseB2=F ITyADJ=14
 ICtDFT= 12500011 ScaDFX=  1.000000  1.000000  1.000000  1.000000
 Range of M.O.s used for correlation:     7    86
 NBasis=    86 NAE=    13 NBE=    13 NFC=     6 NFV=     0
 NROrb=     80 NOA=     7 NOB=     7 NVA=    73 NVB=    73
 Keep R1, R2, and R3 ints in memory in canonical form, NReq=124611375.
   200 initial guesses have been made.
 Convergence on wavefunction:    0.001000000000000
 Iteration     1 Dimension   200 NMult     0 NNew    200
 CISAX will form   200 AO SS matrices at one time.
 New state      1 was old state      2
 New state      2 was old state      1
 New state      3 was old state      4
 New state      4 was old state      3
 New state      7 was old state      8
 New state      8 was old state      7
 New state     10 was old state     13
 New state     11 was old state     14
 New state     12 was old state     11
 New state     13 was old state     12
 New state     14 was old state     10
 New state     15 was old state     19
 New state     16 was old state     20
 New state     19 was old state     16
 New state     20 was old state     21
 New state     21 was old state     22
 New state     22 was old state     15
 New state     25 was old state     26
 New state     26 was old state     25
 New state     27 was old state     28
 New state     28 was old state     27
 New state     30 was old state     32
 New state     31 was old state     33
 New state     32 was old state     31
 New state     33 was old state     30
 New state     36 was old state     37
 New state     37 was old state     39
 New state     38 was old state     36
 New state     39 was old state     41
 New state     41 was old state     45
 New state     42 was old state     44
 New state     43 was old state     42
 New state     44 was old state     43
 New state     45 was old state     47
 New state     46 was old state     48
 New state     47 was old state     49
 New state     48 was old state     54
 New state     49 was old state     53
 New state     50 was old state     55
 Iteration     2 Dimension   300 NMult   200 NNew    100
 New state      1 was old state      2
 New state      2 was old state      1
 New state      3 was old state      4
 New state      4 was old state      3
 New state      6 was old state      7
 New state      7 was old state      6
 New state     32 was old state     33
 New state     33 was old state     32
 New state     35 was old state     36
 New state     36 was old state     35
 New state     39 was old state     40
 New state     40 was old state     39
 Iteration     3 Dimension   398 NMult   300 NNew     98
 ***********************************************************************
 Excited states from <AA,BB:AA,BB> singles matrix:
 ***********************************************************************
 
 Ground to excited state transition densities written to RWF  633
 Ground to excited state transition electric dipole moments (Au):
       state          X           Y           Z        Dip. S.      Osc.
         1        -0.1459      0.0000      0.0000      0.0213      0.0039
         2         0.0000     -0.1459      0.0000      0.0213      0.0039
         3        -0.0273      0.0000      0.0000      0.0007      0.0002
         4         0.0000     -0.0273      0.0000      0.0007      0.0002
         5         0.0000      0.0000      0.0000      0.0000      0.0000
         6         0.2424      0.0000      0.0000      0.0588      0.0153
         7         0.0000      0.2424      0.0000      0.0588      0.0153
         8         0.0000      0.0000      0.4442      0.1973      0.0518
         9         0.0000      0.0000     -1.6381      2.6834      0.7533
        10         0.2810      0.0000      0.0000      0.0790      0.0225
        11         0.0000      0.2810     -0.0001      0.0790      0.0225
        12        -0.5998      0.0000      0.0000      0.3598      0.1076
        13         0.0000     -0.5998      0.0000      0.3598      0.1076
        14         0.0000      0.0000      0.4681      0.2191      0.0667
        15         0.7451      0.0000      0.0000      0.5551      0.1770
        16         0.0000      0.7451      0.0000      0.5551      0.1770
        17         0.0000      0.0000      0.0000      0.0000      0.0000
        18         0.0000     -0.1282      0.0000      0.0164      0.0053
        19         0.1281      0.0000      0.0000      0.0164      0.0053
        20         0.0000     -0.3463      0.0000      0.1199      0.0394
        21         0.3462      0.0000      0.0000      0.1199      0.0394
        22         0.0000      0.0000      0.9539      0.9099      0.3052
        23         0.0001      0.0000      0.0000      0.0000      0.0000
        24         0.0000     -0.7164      0.0000      0.5133      0.1820
        25        -0.7164      0.0000      0.0000      0.5133      0.1820
        26         0.0000      0.0000      0.1297      0.0168      0.0060
        27         0.0000     -0.5339      0.0000      0.2850      0.1042
        28        -0.5339      0.0000      0.0000      0.2850      0.1042
        29         0.0000      0.0000     -0.2578      0.0665      0.0256
        30        -0.1049      0.0000      0.0000      0.0110      0.0043
        31         0.0000     -0.1049      0.0000      0.0110      0.0043
        32        -0.1571      0.0000      0.0000      0.0247      0.0097
        33         0.0000     -0.1571      0.0000      0.0247      0.0097
        34         0.0000      0.0000      0.0000      0.0000      0.0000
        35        -0.1201      0.0000      0.0000      0.0144      0.0058
        36         0.0000     -0.1201      0.0000      0.0144      0.0058
        37         0.0000      0.0000      0.0000      0.0000      0.0000
        38         0.0000     -0.0003      0.8295      0.6880      0.2904
        39        -0.5494      0.0000      0.0000      0.3018      0.1275
        40         0.0000      0.5494      0.0005      0.3018      0.1275
        41         0.0000      0.0000      0.0000      0.0000      0.0000
        42         0.0000      0.0000      0.1863      0.0347      0.0151
        43         0.0386      0.0000      0.0000      0.0015      0.0007
        44         0.0000      0.0385      0.0000      0.0015      0.0007
        45         0.0000     -0.3809     -0.0001      0.1451      0.0641
        46        -0.3809      0.0000      0.0000      0.1451      0.0641
        47         0.0000      0.0001     -0.7111      0.5057      0.2247
        48         0.0000      0.0000     -0.0438      0.0019      0.0009
        49         0.0000      0.0000      0.0000      0.0000      0.0000
        50         0.0000      0.0000     -0.4727      0.2235      0.1051
 Ground to excited state transition velocity dipole moments (Au):
       state          X           Y           Z        Dip. S.      Osc.
         1         0.0437      0.0000      0.0000      0.0019      0.0047
         2         0.0000      0.0437      0.0000      0.0019      0.0047
         3         0.0204      0.0000      0.0000      0.0004      0.0008
         4         0.0000      0.0204      0.0000      0.0004      0.0008
         5         0.0000      0.0000      0.0000      0.0000      0.0000
         6        -0.1022      0.0000      0.0000      0.0104      0.0178
         7         0.0000     -0.1022      0.0000      0.0104      0.0178
         8         0.0000      0.0000     -0.1865      0.0348      0.0589
         9         0.0000      0.0000      0.6950      0.4831      0.7648
        10        -0.1241      0.0000      0.0000      0.0154      0.0240
        11         0.0000     -0.1242      0.0001      0.0154      0.0240
        12         0.2580      0.0000      0.0000      0.0666      0.0989
        13         0.0000      0.2580      0.0000      0.0666      0.0989
        14         0.0000      0.0000     -0.2205      0.0486      0.0710
        15        -0.3503      0.0000      0.0000      0.1227      0.1711
        16         0.0000     -0.3503      0.0000      0.1227      0.1711
        17         0.0000      0.0000      0.0000      0.0000      0.0000
        18         0.0000      0.0739      0.0000      0.0055      0.0075
        19        -0.0739      0.0000      0.0000      0.0055      0.0075
        20         0.0000      0.1837      0.0000      0.0338      0.0456
        21        -0.1837      0.0000      0.0000      0.0337      0.0456
        22         0.0000      0.0000     -0.4947      0.2447      0.3242
        23        -0.0001      0.0000      0.0000      0.0000      0.0000
        24         0.0000      0.3933      0.0000      0.1547      0.1939
        25         0.3933      0.0000      0.0000      0.1547      0.1939
        26         0.0000      0.0000     -0.0693      0.0048      0.0060
        27         0.0000      0.2595      0.0000      0.0674      0.0819
        28         0.2596      0.0000      0.0000      0.0674      0.0819
        29         0.0000      0.0000      0.1315      0.0173      0.0199
        30         0.0705      0.0000      0.0000      0.0050      0.0056
        31         0.0000      0.0705      0.0000      0.0050      0.0056
        32         0.0718      0.0000      0.0000      0.0052      0.0058
        33         0.0000      0.0718      0.0000      0.0052      0.0058
        34         0.0000      0.0000      0.0000      0.0000      0.0000
        35         0.0671      0.0000      0.0000      0.0045      0.0050
        36         0.0000      0.0672      0.0000      0.0045      0.0050
        37         0.0000      0.0000      0.0000      0.0000      0.0000
        38         0.0000      0.0002     -0.4796      0.2301      0.2423
        39         0.3374      0.0000      0.0000      0.1139      0.1198
        40         0.0000     -0.3374     -0.0003      0.1139      0.1198
        41         0.0000      0.0000      0.0000      0.0000      0.0000
        42         0.0000      0.0000     -0.1248      0.0156      0.0159
        43        -0.0262      0.0000      0.0000      0.0007      0.0007
        44         0.0000     -0.0262      0.0000      0.0007      0.0007
        45         0.0000      0.2223      0.0000      0.0494      0.0497
        46         0.2223      0.0000      0.0000      0.0494      0.0497
        47         0.0000      0.0000      0.4392      0.1929      0.1930
        48         0.0000      0.0000      0.0257      0.0007      0.0006
        49         0.0000      0.0000      0.0000      0.0000      0.0000
        50         0.0000      0.0000      0.3055      0.0933      0.0882
 Ground to excited state transition magnetic dipole moments (Au):
       state          X           Y           Z
         1         0.0000     -0.1964      0.0000
         2         0.1964      0.0000      0.0000
         3         0.0000     -1.0055      0.0000
         4         1.0055      0.0000      0.0000
         5         0.0000     -0.0001      0.4564
         6         0.0000      0.7356      0.0001
         7        -0.7356      0.0000      0.0000
         8         0.0000      0.0000      0.0000
         9        -0.0001      0.0000      0.0000
        10         0.0000     -0.7253      0.0000
        11         0.7253      0.0000      0.0000
        12         0.0000      0.3397      0.0000
        13        -0.3397      0.0000      0.0000
        14         0.0000      0.0000      0.0000
        15         0.0000      0.9276      0.0000
        16        -0.9275      0.0000      0.0000
        17         0.0000      0.0000      0.3374
        18         0.9104      0.0000      0.0000
        19         0.0000      0.9103      0.0000
        20         0.0260      0.0000      0.0000
        21         0.0000      0.0260      0.0000
        22         0.0000      0.0000      0.0000
        23         0.0000      0.0001     -0.7074
        24         0.9556      0.0000      0.0000
        25         0.0000     -0.9556     -0.0001
        26         0.0000      0.0000      0.0000
        27         0.1621      0.0000      0.0000
        28         0.0000     -0.1621      0.0000
        29         0.0000      0.0000      0.0000
        30         0.0000     -0.1844      0.0000
        31         0.1844      0.0000      0.0000
        32         0.0000     -0.3332      0.0000
        33         0.3332      0.0000      0.0000
        34         0.0000     -0.0001      0.0870
        35         0.0000      0.3476      0.0000
        36        -0.3476      0.0000      0.0000
        37         0.0000      0.0000      0.5960
        38         0.0006      0.0000      0.0000
        39         0.0000     -1.0382      0.0000
        40        -1.0382      0.0000      0.0000
        41         0.0000      0.0000      0.0314
        42         0.0000      0.0000      0.0000
        43         0.0000      0.0700      0.0000
        44        -0.0702      0.0000      0.0000
        45        -0.5177      0.0000      0.0000
        46         0.0000      0.5177      0.0000
        47         0.0000      0.0000      0.0000
        48         0.0000      0.0000      0.0000
        49         0.0000      0.0000      0.0785
        50         0.0000      0.0000      0.0000
 Ground to excited state transition velocity quadrupole moments (Au):
       state          XX          YY          ZZ          XY          XZ          YZ
         1         0.0000      0.0000      0.0000     -0.0143      0.0120      0.0000
         2        -0.0143      0.0143      0.0000      0.0000      0.0000      0.0120
         3         0.0000      0.0000      0.0000     -0.1456     -0.4895      0.0000
         4        -0.1456      0.1456      0.0000      0.0000      0.0000     -0.4895
         5         0.0000      0.0000      0.0000      0.0000     -0.0001      0.0000
         6         0.0000      0.0000      0.0000      0.0819      0.6002      0.0000
         7         0.0819     -0.0819      0.0000      0.0000      0.0000      0.6002
         8         0.1747      0.1747      0.3926      0.0000      0.0000      0.0000
         9        -0.2256     -0.2255     -0.9154      0.0000      0.0000      0.0000
        10         0.0000      0.0000      0.0000      0.0521      0.4694      0.0000
        11         0.0520     -0.0521     -0.0001      0.0000      0.0000      0.4694
        12         0.0000      0.0000      0.0000     -0.0155     -0.1028      0.0000
        13        -0.0155      0.0155      0.0000      0.0000      0.0000     -0.1028
        14        -0.1761     -0.1761      0.0751      0.0000      0.0000      0.0000
        15         0.0000      0.0000      0.0000      0.3662      0.7897      0.0000
        16         0.3662     -0.3662      0.0000      0.0000      0.0000      0.7897
        17         0.0000      0.0000      0.0000      0.0000      0.0000      0.0000
        18        -0.0263      0.0263      0.0000      0.0000      0.0000     -0.4585
        19         0.0000      0.0000      0.0000      0.0263      0.4584      0.0000
        20        -0.2825      0.2825      0.0000      0.0000      0.0000     -0.4421
        21         0.0000      0.0000      0.0000      0.2825      0.4421      0.0000
        22         0.2105      0.2105     -0.1332      0.0000      0.0000      0.0000
        23         0.0000      0.0000      0.0000      0.0001      0.0001      0.0000
        24        -0.5229      0.5229      0.0000      0.0000      0.0000     -1.3909
        25         0.0000      0.0000      0.0000     -0.5229     -1.3909      0.0000
        26         0.6086      0.6087      0.3766      0.0000      0.0000      0.0000
        27        -0.2038      0.2038      0.0000      0.0000      0.0000      0.4070
        28         0.0000      0.0000      0.0000     -0.2038      0.4070      0.0000
        29        -0.1591     -0.1591     -1.3698      0.0000      0.0000      0.0000
        30         0.0000      0.0000      0.0000     -0.1997      0.3733      0.0000
        31        -0.1997      0.1997     -0.0001      0.0000      0.0000      0.3733
        32         0.0000      0.0000      0.0000      0.2960     -0.3989      0.0000
        33         0.2960     -0.2960      0.0000      0.0000      0.0000     -0.3989
        34         0.0000      0.0000      0.0000     -0.0001      0.0000      0.0000
        35         0.0000      0.0000      0.0000      0.4354      0.1743      0.0000
        36         0.4354     -0.4354      0.0000      0.0000      0.0000      0.1743
        37         0.0000      0.0000      0.0000      0.0000      0.0000      0.0000
        38         0.1644      0.1635      0.5092      0.0000      0.0000     -0.0006
        39         0.0000      0.0000      0.0000      0.8170     -1.0332      0.0000
        40        -0.8169      0.8170      0.0003      0.0000      0.0000      1.0332
        41         0.0000      0.0000      0.0000      0.0000      0.0000      0.0000
        42        -1.1662     -1.1662      1.4410      0.0000      0.0000      0.0000
        43         0.0000      0.0000      0.0000      0.0236     -0.2761      0.0000
        44         0.0235     -0.0235      0.0000      0.0000      0.0000     -0.2762
        45        -0.4436      0.4436      0.0002      0.0000      0.0000     -0.1834
        46         0.0000      0.0000      0.0000     -0.4436     -0.1835      0.0000
        47         0.2371      0.2370      0.6484      0.0000      0.0000      0.0000
        48         0.0934      0.0933      0.3390      0.0000      0.0000      0.0000
        49         0.0000      0.0000      0.0000      0.0000      0.0000      0.0000
        50         1.0528      1.0528      2.6611      0.0000      0.0000      0.0000
 <0|del|b> * <b|rxdel|0> + <0|del|b> * <b|delr+rdel|0>
 Rotatory Strengths (R) in cgs (10**-40 erg-esu-cm/Gauss)
       state          XX          YY          ZZ    R(velocity)    E-M Angle
         1         0.0000      0.0000      0.0000      0.0000       90.00
         2         0.0000      0.0000      0.0000      0.0000       90.00
         3         0.0000      0.0000      0.0000      0.0000       90.00
         4         0.0000      0.0000      0.0000      0.0000       90.00
         5         0.0000      0.0000      0.0000      0.0000       90.00
         6         0.0000      0.0000      0.0000      0.0000       90.00
         7         0.0000      0.0000      0.0000      0.0000       90.00
         8         0.0000      0.0000      0.0000      0.0000       90.00
         9         0.0000      0.0000      0.0000      0.0000       90.00
        10         0.0000      0.0000      0.0000      0.0000       90.00
        11         0.0000      0.0000      0.0000      0.0000       90.00
        12         0.0000      0.0000      0.0000      0.0000       90.00
        13         0.0000      0.0000      0.0000      0.0000       90.00
        14         0.0000      0.0000      0.0000      0.0000       90.00
        15         0.0000      0.0000      0.0000      0.0000       90.00
        16         0.0000      0.0000      0.0000      0.0000       90.00
        17         0.0000      0.0000      0.0000      0.0000       90.00
        18         0.0000      0.0000      0.0000      0.0000       90.00
        19         0.0000      0.0000      0.0000      0.0000       90.00
        20         0.0000      0.0000      0.0000      0.0000       90.00
        21         0.0000      0.0000      0.0000      0.0000       90.00
        22         0.0000      0.0000      0.0000      0.0000       90.00
        23         0.0000      0.0000      0.0000      0.0000       90.00
        24         0.0002     -0.0002      0.0000      0.0000       90.00
        25        -0.0002      0.0002      0.0000      0.0000       90.00
        26         0.0000      0.0000      0.0000      0.0000       90.00
        27         0.0000      0.0000      0.0000      0.0000       90.00
        28         0.0000      0.0000      0.0000      0.0000       90.00
        29         0.0000      0.0000      0.0000      0.0000       90.00
        30         0.0000      0.0000      0.0000      0.0000       90.00
        31         0.0000      0.0000      0.0000      0.0000       90.00
        32         0.0000      0.0000      0.0000      0.0000       90.00
        33         0.0000      0.0000      0.0000      0.0000       90.00
        34         0.0000      0.0000      0.0000      0.0000       90.00
        35         0.0000      0.0000      0.0000      0.0000       90.00
        36         0.0000      0.0000      0.0000      0.0000       90.00
        37         0.0000      0.0000      0.0000      0.0000       90.00
        38         0.0000      0.0000      0.0000      0.0000       90.00
        39         0.0000      0.0000      0.0000      0.0000       90.00
        40         0.0000      0.0000      0.0000      0.0000       90.00
        41         0.0000      0.0000      0.0000      0.0000       90.00
        42         0.0000      0.0000      0.0000      0.0000       90.00
        43         0.0000      0.0000      0.0000      0.0000       90.00
        44         0.0000      0.0000      0.0000      0.0000       90.00
        45         0.0005     -0.0005      0.0000      0.0000       90.00
        46        -0.0005      0.0005      0.0000      0.0000       90.00
        47         0.0000      0.0000      0.0000      0.0000       90.00
        48         0.0000      0.0000      0.0000      0.0000       90.00
        49         0.0000      0.0000      0.0000      0.0000       90.00
        50         0.0000      0.0000      0.0000      0.0000       90.00
 1/2[<0|r|b>*<b|rxdel|0> + (<0|rxdel|b>*<b|r|0>)*]
 Rotatory Strengths (R) in cgs (10**-40 erg-esu-cm/Gauss)
       state          XX          YY          ZZ     R(length)
         1         0.0000      0.0000      0.0000      0.0000
         2         0.0000      0.0000      0.0000      0.0000
         3         0.0000      0.0000      0.0000      0.0000
         4         0.0000      0.0000      0.0000      0.0000
         5         0.0000      0.0000      0.0000      0.0000
         6        -0.0001      0.0001      0.0000      0.0000
         7         0.0001     -0.0001      0.0000      0.0000
         8         0.0000      0.0000      0.0000      0.0000
         9         0.0000      0.0000      0.0000      0.0000
        10         0.0000      0.0000      0.0000      0.0000
        11         0.0000      0.0000      0.0000      0.0000
        12         0.0000      0.0000      0.0000      0.0000
        13         0.0000      0.0000      0.0000      0.0000
        14         0.0000      0.0000      0.0000      0.0000
        15         0.0001     -0.0001      0.0000      0.0000
        16        -0.0001      0.0001      0.0000      0.0000
        17         0.0000      0.0000      0.0000      0.0000
        18        -0.0001      0.0001      0.0000      0.0000
        19         0.0001     -0.0001      0.0000      0.0000
        20         0.0000      0.0000      0.0000      0.0000
        21         0.0000      0.0000      0.0000      0.0000
        22         0.0000      0.0000      0.0000      0.0000
        23         0.0000      0.0000      0.0000      0.0000
        24         0.0009     -0.0009      0.0000      0.0000
        25        -0.0009      0.0009      0.0000      0.0000
        26         0.0000      0.0000      0.0000      0.0000
        27         0.0000      0.0000      0.0000      0.0000
        28         0.0000      0.0000      0.0000      0.0000
        29         0.0000      0.0000      0.0000      0.0000
        30         0.0000      0.0000      0.0000      0.0000
        31         0.0000      0.0000      0.0000      0.0000
        32         0.0000      0.0000      0.0000      0.0000
        33         0.0000      0.0000      0.0000      0.0000
        34         0.0000      0.0000      0.0000      0.0000
        35         0.0000      0.0000      0.0000      0.0000
        36         0.0000      0.0000      0.0000      0.0000
        37         0.0000      0.0000      0.0000      0.0000
        38         0.0000      0.0000      0.0000      0.0000
        39        -0.0006      0.0006      0.0000      0.0000
        40         0.0006     -0.0006      0.0000      0.0000
        41         0.0000      0.0000      0.0000      0.0000
        42         0.0000      0.0000      0.0000      0.0000
        43         0.0000      0.0000      0.0000      0.0000
        44         0.0000      0.0000      0.0000      0.0000
        45        -0.0009      0.0009      0.0000      0.0000
        46         0.0009     -0.0009      0.0000      0.0000
        47         0.0000      0.0000      0.0000      0.0000
        48         0.0000      0.0000      0.0000      0.0000
        49         0.0000      0.0000      0.0000      0.0000
        50         0.0000      0.0000      0.0000      0.0000
  1/2[<0|del|b>*<b|r|0> + (<0|r|b>*<b|del|0>)*] (Au)
       state          X           Y           Z        Dip. S.   Osc.(frdel)
         1        -0.0064      0.0000      0.0000      0.0064      0.0043
         2         0.0000     -0.0064      0.0000      0.0064      0.0043
         3        -0.0006      0.0000      0.0000      0.0006      0.0004
         4         0.0000     -0.0006      0.0000      0.0006      0.0004
         5         0.0000      0.0000      0.0000      0.0000      0.0000
         6        -0.0248      0.0000      0.0000      0.0248      0.0165
         7         0.0000     -0.0248      0.0000      0.0248      0.0165
         8         0.0000      0.0000     -0.0828      0.0828      0.0552
         9         0.0000      0.0000     -1.1385      1.1385      0.7590
        10        -0.0349      0.0000      0.0000      0.0349      0.0233
        11         0.0000     -0.0349      0.0000      0.0349      0.0233
        12        -0.1548      0.0000      0.0000      0.1548      0.1032
        13         0.0000     -0.1547      0.0000      0.1547      0.1032
        14         0.0000      0.0000     -0.1032      0.1032      0.0688
        15        -0.2610      0.0000      0.0000      0.2610      0.1740
        16         0.0000     -0.2610      0.0000      0.2610      0.1740
        17         0.0000      0.0000      0.0000      0.0000      0.0000
        18         0.0000     -0.0095      0.0000      0.0095      0.0063
        19        -0.0095      0.0000      0.0000      0.0095      0.0063
        20         0.0000     -0.0636      0.0000      0.0636      0.0424
        21        -0.0636      0.0000      0.0000      0.0636      0.0424
        22         0.0000      0.0000     -0.4719      0.4719      0.3146
        23         0.0000      0.0000      0.0000      0.0000      0.0000
        24         0.0000     -0.2818      0.0000      0.2818      0.1878
        25        -0.2818      0.0000      0.0000      0.2818      0.1879
        26         0.0000      0.0000     -0.0090      0.0090      0.0060
        27         0.0000     -0.1386      0.0000      0.1386      0.0924
        28        -0.1386      0.0000      0.0000      0.1386      0.0924
        29         0.0000      0.0000     -0.0339      0.0339      0.0226
        30        -0.0074      0.0000      0.0000      0.0074      0.0049
        31         0.0000     -0.0074      0.0000      0.0074      0.0049
        32        -0.0113      0.0000      0.0000      0.0113      0.0075
        33         0.0000     -0.0113      0.0000      0.0113      0.0075
        34         0.0000      0.0000      0.0000      0.0000      0.0000
        35        -0.0081      0.0000      0.0000      0.0081      0.0054
        36         0.0000     -0.0081      0.0000      0.0081      0.0054
        37         0.0000      0.0000      0.0000      0.0000      0.0000
        38         0.0000      0.0000     -0.3978      0.3978      0.2652
        39        -0.1854      0.0000      0.0000      0.1854      0.1236
        40         0.0000     -0.1854      0.0000      0.1854      0.1236
        41         0.0000      0.0000      0.0000      0.0000      0.0000
        42         0.0000      0.0000     -0.0232      0.0232      0.0155
        43        -0.0010      0.0000      0.0000      0.0010      0.0007
        44         0.0000     -0.0010      0.0000      0.0010      0.0007
        45         0.0000     -0.0847      0.0000      0.0847      0.0565
        46        -0.0847      0.0000      0.0000      0.0847      0.0565
        47         0.0000      0.0000     -0.3124      0.3124      0.2082
        48         0.0000      0.0000     -0.0011      0.0011      0.0007
        49         0.0000      0.0000      0.0000      0.0000      0.0000
        50         0.0000      0.0000     -0.1444      0.1444      0.0963

 Excitation energies and oscillator strengths:
 
 Excited state symmetry could not be determined.
 Excited State   1:      Singlet-?Sym    7.4485 eV  166.46 nm  f=0.0039  <S**2>=0.000
       7 -> 17         0.00475
       7 -> 19         0.00034
       7 -> 23        -0.01094
       7 -> 26        -0.00180
       7 -> 28        -0.00130
       7 -> 30         0.00397
       7 -> 33        -0.00158
       7 -> 35        -0.00018
       7 -> 41         0.00020
       7 -> 46        -0.00017
       7 -> 49        -0.00171
       7 -> 58        -0.00106
       7 -> 60        -0.00021
       7 -> 62         0.00023
       7 -> 67         0.00016
       7 -> 69         0.00021
       7 -> 74         0.00014
       7 -> 82        -0.00024
       8 -> 17         0.00075
       8 -> 19        -0.00254
       8 -> 23        -0.00146
       8 -> 26         0.00188
       8 -> 28         0.00068
       8 -> 30         0.00109
       8 -> 33        -0.00206
       8 -> 35         0.00054
       8 -> 45        -0.00079
       8 -> 46        -0.00041
       8 -> 53         0.00035
       8 -> 58        -0.00042
       8 -> 60        -0.00050
       8 -> 62         0.00049
       8 -> 64         0.00013
       8 -> 67         0.00086
       8 -> 69         0.00018
       8 -> 74         0.00023
       8 -> 76         0.00025
       8 -> 80        -0.00012
       8 -> 82        -0.00013
       9 -> 17         0.00573
       9 -> 19         0.00193
       9 -> 23         0.00277
       9 -> 26         0.00498
       9 -> 28        -0.00752
       9 -> 30         0.00150
       9 -> 33        -0.00098
       9 -> 35        -0.00161
       9 -> 41        -0.00062
       9 -> 45         0.00010
       9 -> 46         0.00123
       9 -> 53         0.00164
       9 -> 58        -0.00019
       9 -> 60         0.00020
       9 -> 62        -0.00057
       9 -> 64         0.00063
       9 -> 67         0.00049
       9 -> 69        -0.00039
       9 -> 74         0.00022
       9 -> 76        -0.00019
      10 -> 14        -0.00078
      10 -> 15        -0.00596
      10 -> 16        -0.00573
      10 -> 18        -0.00786
      10 -> 20         0.00193
      10 -> 21         0.01194
      10 -> 22        -0.00277
      10 -> 25         0.00498
      10 -> 27         0.00753
      10 -> 29        -0.00149
      10 -> 31        -0.00378
      10 -> 32         0.00554
      10 -> 34        -0.00098
      10 -> 36         0.00161
      10 -> 37        -0.00160
      10 -> 38         0.00317
      10 -> 39         0.00022
      10 -> 40        -0.00062
      10 -> 43         0.00353
      10 -> 44         0.00010
      10 -> 47         0.00123
      10 -> 50        -0.00012
      10 -> 51        -0.00017
      10 -> 52        -0.00164
      10 -> 54        -0.00141
      10 -> 56        -0.00033
      10 -> 57        -0.00019
      10 -> 59         0.00020
      10 -> 63        -0.00057
      10 -> 65        -0.00063
      10 -> 68         0.00049
      10 -> 70        -0.00039
      10 -> 71        -0.00037
      10 -> 73         0.00022
      10 -> 77        -0.00019
      11 -> 17        -0.01276
      11 -> 19        -0.00188
      11 -> 23         0.01544
      11 -> 26         0.00370
      11 -> 28         0.00184
      11 -> 30        -0.00572
      11 -> 33         0.00096
      11 -> 35         0.00106
      11 -> 41        -0.00097
      11 -> 45        -0.00272
      11 -> 46        -0.00093
      11 -> 49         0.00368
      11 -> 53         0.00088
      11 -> 58         0.00088
      11 -> 60        -0.00025
      11 -> 62         0.00149
      11 -> 64        -0.00039
      11 -> 67         0.00118
      11 -> 74         0.00036
      11 -> 76         0.00046
      12 -> 17         0.01327
      12 -> 19         0.00835
      12 -> 23         0.00555
      12 -> 26         0.01411
      12 -> 28        -0.02339
      12 -> 30         0.00754
      12 -> 33         0.00095
      12 -> 35         0.00073
      12 -> 41         0.00036
      12 -> 45        -0.00159
      12 -> 46         0.00330
      12 -> 53         0.00311
      12 -> 58        -0.00072
      12 -> 60         0.00192
      12 -> 62        -0.00132
      12 -> 64        -0.00034
      12 -> 67         0.00055
      12 -> 74        -0.00024
      13 -> 14         0.68262
      13 -> 15        -0.15586
      13 -> 16        -0.01327
      13 -> 18        -0.08247
      13 -> 20         0.00835
      13 -> 21         0.00309
      13 -> 22        -0.00555
      13 -> 24         0.01692
      13 -> 25         0.01411
      13 -> 27         0.02339
      13 -> 29        -0.00753
      13 -> 31        -0.01332
      13 -> 32        -0.00175
      13 -> 34         0.00095
      13 -> 36        -0.00073
      13 -> 37        -0.00749
      13 -> 38         0.00145
      13 -> 39         0.00093
      13 -> 40         0.00036
      13 -> 43         0.00113
      13 -> 44        -0.00159
      13 -> 47         0.00330
      13 -> 50        -0.00083
      13 -> 51        -0.00061
      13 -> 52        -0.00312
      13 -> 54        -0.00339
      13 -> 56        -0.00085
      13 -> 57        -0.00072
      13 -> 59         0.00192
      13 -> 61        -0.00078
      13 -> 63        -0.00132
      13 -> 65         0.00034
      13 -> 66        -0.00135
      13 -> 68         0.00055
      13 -> 71        -0.00063
      13 -> 73        -0.00024
      13 -> 75        -0.00016
      13 -> 78        -0.00021
      13 -> 84        -0.00029
       7 <- 17         0.00220
       7 <- 19         0.00134
       7 <- 23        -0.00769
       7 <- 26        -0.00137
       7 <- 28        -0.00063
       7 <- 30         0.00384
       7 <- 33        -0.00206
       7 <- 35         0.00017
       7 <- 41         0.00024
       7 <- 46        -0.00019
       7 <- 49        -0.00109
       7 <- 58        -0.00035
       7 <- 62         0.00017
       7 <- 82        -0.00032
       8 <- 17        -0.00091
       8 <- 19        -0.00094
       8 <- 23        -0.00030
       8 <- 26         0.00202
       8 <- 28         0.00083
       8 <- 30         0.00027
       8 <- 33        -0.00205
       8 <- 35         0.00106
       8 <- 41        -0.00043
       8 <- 45        -0.00106
       8 <- 46        -0.00043
       8 <- 49         0.00028
       8 <- 53         0.00031
       8 <- 60        -0.00038
       8 <- 62         0.00046
       8 <- 67         0.00072
       8 <- 74         0.00018
       8 <- 76         0.00028
       8 <- 82        -0.00017
       9 <- 17         0.00100
       9 <- 19         0.00090
       9 <- 23         0.00124
       9 <- 26         0.00263
       9 <- 28        -0.00316
       9 <- 30         0.00076
       9 <- 33        -0.00109
       9 <- 35        -0.00093
       9 <- 41        -0.00061
       9 <- 45         0.00021
       9 <- 46         0.00090
       9 <- 53         0.00135
       9 <- 58        -0.00016
       9 <- 60         0.00022
       9 <- 62        -0.00053
       9 <- 64         0.00046
       9 <- 67         0.00035
       9 <- 69        -0.00035
       9 <- 74         0.00021
       9 <- 76        -0.00012
      10 <- 14        -0.00217
      10 <- 16        -0.00100
      10 <- 18         0.00222
      10 <- 20         0.00090
      10 <- 21         0.00039
      10 <- 22        -0.00124
      10 <- 24         0.00051
      10 <- 25         0.00263
      10 <- 27         0.00316
      10 <- 29        -0.00076
      10 <- 31        -0.00106
      10 <- 32        -0.00116
      10 <- 34        -0.00110
      10 <- 36         0.00093
      10 <- 37         0.00116
      10 <- 38         0.00025
      10 <- 39        -0.00036
      10 <- 40        -0.00061
      10 <- 43         0.00160
      10 <- 44         0.00021
      10 <- 47         0.00090
      10 <- 50        -0.00076
      10 <- 51         0.00043
      10 <- 52        -0.00135
      10 <- 54        -0.00053
      10 <- 56        -0.00016
      10 <- 57        -0.00016
      10 <- 59         0.00022
      10 <- 61        -0.00070
      10 <- 63        -0.00053
      10 <- 65        -0.00046
      10 <- 66         0.00030
      10 <- 68         0.00035
      10 <- 70        -0.00035
      10 <- 73         0.00021
      10 <- 77        -0.00012
      11 <- 17        -0.00523
      11 <- 19        -0.00582
      11 <- 23         0.00934
      11 <- 26         0.00688
      11 <- 28         0.00186
      11 <- 30        -0.00722
      11 <- 33         0.00129
      11 <- 35         0.00150
      11 <- 41        -0.00142
      11 <- 45        -0.00280
      11 <- 46        -0.00101
      11 <- 49         0.00299
      11 <- 53         0.00097
      11 <- 58         0.00019
      11 <- 60        -0.00060
      11 <- 62         0.00158
      11 <- 64        -0.00037
      11 <- 67         0.00136
      11 <- 74         0.00034
      11 <- 76         0.00048
      11 <- 82         0.00012
      12 <- 17         0.00219
      12 <- 19         0.00165
      12 <- 23         0.00165
      12 <- 26         0.00429
      12 <- 28        -0.00792
      12 <- 30         0.00253
      12 <- 33         0.00064
      12 <- 35         0.00030
      12 <- 41         0.00021
      12 <- 45        -0.00113
      12 <- 46         0.00219
      12 <- 53         0.00234
      12 <- 58        -0.00059
      12 <- 60         0.00158
      12 <- 62        -0.00106
      12 <- 64        -0.00029
      12 <- 67         0.00051
      12 <- 74        -0.00026
      13 <- 14        -0.01721
      13 <- 15         0.00542
      13 <- 16        -0.00219
      13 <- 18         0.00753
      13 <- 20         0.00165
      13 <- 21         0.00097
      13 <- 22        -0.00165
      13 <- 24        -0.00195
      13 <- 25         0.00429
      13 <- 27         0.00792
      13 <- 29        -0.00253
      13 <- 31         0.00238
      13 <- 32        -0.00337
      13 <- 34         0.00064
      13 <- 36        -0.00030
      13 <- 37         0.00219
      13 <- 38        -0.00173
      13 <- 39         0.00054
      13 <- 40         0.00021
      13 <- 43         0.00030
      13 <- 44        -0.00113
      13 <- 47         0.00219
      13 <- 50        -0.00237
      13 <- 51         0.00026
      13 <- 52        -0.00234
      13 <- 54        -0.00135
      13 <- 56        -0.00037
      13 <- 57        -0.00059
      13 <- 59         0.00158
      13 <- 61        -0.00118
      13 <- 63        -0.00106
      13 <- 65         0.00029
      13 <- 66        -0.00053
      13 <- 68         0.00051
      13 <- 73        -0.00026
      13 <- 75        -0.00022
      13 <- 78        -0.00032
      13 <- 84        -0.00018
 This state for optimization and/or second-order correction.
 Total Energy, E(TD-HF/TD-DFT) =  -499.850805571    
 Copying the excited state density for this state as the 1-particle RhoCI density.
 
 Excited state symmetry could not be determined.
 Excited State   2:      Singlet-?Sym    7.4485 eV  166.46 nm  f=0.0039  <S**2>=0.000
       7 -> 16        -0.00475
       7 -> 20         0.00034
       7 -> 22         0.01094
       7 -> 25        -0.00180
       7 -> 27         0.00130
       7 -> 29        -0.00397
       7 -> 34        -0.00158
       7 -> 36         0.00018
       7 -> 40         0.00020
       7 -> 47        -0.00017
       7 -> 48        -0.00171
       7 -> 57        -0.00106
       7 -> 59        -0.00021
       7 -> 63         0.00023
       7 -> 68         0.00016
       7 -> 70         0.00021
       7 -> 73         0.00014
       7 -> 83        -0.00024
       8 -> 16        -0.00075
       8 -> 20        -0.00254
       8 -> 22         0.00146
       8 -> 25         0.00188
       8 -> 27        -0.00068
       8 -> 29        -0.00109
       8 -> 34        -0.00206
       8 -> 36        -0.00054
       8 -> 44        -0.00079
       8 -> 47        -0.00041
       8 -> 52        -0.00035
       8 -> 57        -0.00042
       8 -> 59        -0.00050
       8 -> 63         0.00049
       8 -> 65        -0.00013
       8 -> 68         0.00086
       8 -> 70         0.00018
       8 -> 73         0.00023
       8 -> 77         0.00025
       8 -> 79        -0.00012
       8 -> 83        -0.00013
       9 -> 14        -0.00078
       9 -> 15        -0.00597
       9 -> 16         0.00573
       9 -> 18        -0.00786
       9 -> 20        -0.00193
       9 -> 21         0.01194
       9 -> 22         0.00277
       9 -> 25        -0.00498
       9 -> 27        -0.00752
       9 -> 29         0.00150
       9 -> 31        -0.00378
       9 -> 32         0.00554
       9 -> 34         0.00098
       9 -> 36        -0.00161
       9 -> 37        -0.00160
       9 -> 38         0.00317
       9 -> 39         0.00022
       9 -> 40         0.00062
       9 -> 43         0.00353
       9 -> 44        -0.00010
       9 -> 47        -0.00123
       9 -> 50        -0.00012
       9 -> 51        -0.00018
       9 -> 52         0.00164
       9 -> 54        -0.00141
       9 -> 56        -0.00033
       9 -> 57         0.00019
       9 -> 59        -0.00020
       9 -> 63         0.00057
       9 -> 65         0.00063
       9 -> 68        -0.00049
       9 -> 70         0.00039
       9 -> 71        -0.00037
       9 -> 73        -0.00022
       9 -> 77         0.00019
      10 -> 17         0.00573
      10 -> 19         0.00193
      10 -> 23         0.00277
      10 -> 26         0.00498
      10 -> 28        -0.00752
      10 -> 30         0.00150
      10 -> 33        -0.00098
      10 -> 35        -0.00161
      10 -> 41        -0.00062
      10 -> 45         0.00010
      10 -> 46         0.00123
      10 -> 53         0.00164
      10 -> 58        -0.00019
      10 -> 60         0.00020
      10 -> 62        -0.00057
      10 -> 64         0.00063
      10 -> 67         0.00049
      10 -> 69        -0.00039
      10 -> 74         0.00022
      10 -> 76        -0.00019
      11 -> 16         0.01276
      11 -> 20        -0.00188
      11 -> 22        -0.01544
      11 -> 25         0.00370
      11 -> 27        -0.00184
      11 -> 29         0.00571
      11 -> 34         0.00096
      11 -> 36        -0.00106
      11 -> 40        -0.00097
      11 -> 44        -0.00272
      11 -> 47        -0.00093
      11 -> 48         0.00368
      11 -> 52        -0.00088
      11 -> 57         0.00088
      11 -> 59        -0.00025
      11 -> 63         0.00149
      11 -> 65         0.00039
      11 -> 68         0.00118
      11 -> 73         0.00036
      11 -> 77         0.00046
      12 -> 14         0.68262
      12 -> 15        -0.15586
      12 -> 16         0.01327
      12 -> 18        -0.08247
      12 -> 20        -0.00835
      12 -> 21         0.00309
      12 -> 22         0.00555
      12 -> 24         0.01692
      12 -> 25        -0.01411
      12 -> 27        -0.02339
      12 -> 29         0.00754
      12 -> 31        -0.01332
      12 -> 32        -0.00175
      12 -> 34        -0.00095
      12 -> 36         0.00073
      12 -> 37        -0.00749
      12 -> 38         0.00145
      12 -> 39         0.00093
      12 -> 40        -0.00036
      12 -> 43         0.00113
      12 -> 44         0.00159
      12 -> 47        -0.00330
      12 -> 50        -0.00083
      12 -> 51        -0.00064
      12 -> 52         0.00311
      12 -> 54        -0.00339
      12 -> 56        -0.00085
      12 -> 57         0.00072
      12 -> 59        -0.00192
      12 -> 61        -0.00078
      12 -> 63         0.00132
      12 -> 65        -0.00034
      12 -> 66        -0.00135
      12 -> 68        -0.00055
      12 -> 71        -0.00063
      12 -> 73         0.00024
      12 -> 75        -0.00016
      12 -> 78        -0.00021
      12 -> 84        -0.00029
      13 -> 17         0.01328
      13 -> 19         0.00835
      13 -> 23         0.00555
      13 -> 26         0.01411
      13 -> 28        -0.02339
      13 -> 30         0.00754
      13 -> 33         0.00095
      13 -> 35         0.00073
      13 -> 41         0.00036
      13 -> 45        -0.00159
      13 -> 46         0.00330
      13 -> 53         0.00311
      13 -> 58        -0.00072
      13 -> 60         0.00192
      13 -> 62        -0.00132
      13 -> 64        -0.00034
      13 -> 67         0.00055
      13 -> 74        -0.00024
       7 <- 16        -0.00220
       7 <- 20         0.00134
       7 <- 22         0.00769
       7 <- 25        -0.00137
       7 <- 27         0.00063
       7 <- 29        -0.00384
       7 <- 34        -0.00206
       7 <- 36        -0.00017
       7 <- 40         0.00024
       7 <- 47        -0.00019
       7 <- 48        -0.00109
       7 <- 57        -0.00035
       7 <- 63         0.00017
       7 <- 83        -0.00032
       8 <- 16         0.00091
       8 <- 20        -0.00094
       8 <- 22         0.00030
       8 <- 25         0.00202
       8 <- 27        -0.00083
       8 <- 29        -0.00027
       8 <- 34        -0.00205
       8 <- 36        -0.00106
       8 <- 40        -0.00043
       8 <- 44        -0.00106
       8 <- 47        -0.00043
       8 <- 48         0.00028
       8 <- 52        -0.00031
       8 <- 59        -0.00038
       8 <- 63         0.00046
       8 <- 68         0.00072
       8 <- 73         0.00018
       8 <- 77         0.00028
       8 <- 83        -0.00017
       9 <- 14        -0.00217
       9 <- 16         0.00100
       9 <- 18         0.00222
       9 <- 20        -0.00090
       9 <- 21         0.00039
       9 <- 22         0.00124
       9 <- 24         0.00051
       9 <- 25        -0.00263
       9 <- 27        -0.00316
       9 <- 29         0.00076
       9 <- 31        -0.00106
       9 <- 32        -0.00116
       9 <- 34         0.00110
       9 <- 36        -0.00093
       9 <- 37         0.00116
       9 <- 38         0.00025
       9 <- 39        -0.00036
       9 <- 40         0.00061
       9 <- 43         0.00160
       9 <- 44        -0.00021
       9 <- 47        -0.00090
       9 <- 50        -0.00076
       9 <- 51         0.00042
       9 <- 52         0.00135
       9 <- 54        -0.00053
       9 <- 56        -0.00016
       9 <- 57         0.00016
       9 <- 59        -0.00022
       9 <- 61        -0.00070
       9 <- 63         0.00053
       9 <- 65         0.00046
       9 <- 66         0.00030
       9 <- 68        -0.00035
       9 <- 70         0.00035
       9 <- 73        -0.00021
       9 <- 77         0.00012
      10 <- 17         0.00100
      10 <- 19         0.00090
      10 <- 23         0.00124
      10 <- 26         0.00263
      10 <- 28        -0.00316
      10 <- 30         0.00076
      10 <- 33        -0.00110
      10 <- 35        -0.00093
      10 <- 41        -0.00061
      10 <- 45         0.00021
      10 <- 46         0.00090
      10 <- 53         0.00135
      10 <- 58        -0.00016
      10 <- 60         0.00022
      10 <- 62        -0.00053
      10 <- 64         0.00046
      10 <- 67         0.00035
      10 <- 69        -0.00035
      10 <- 74         0.00021
      10 <- 76        -0.00012
      11 <- 16         0.00523
      11 <- 20        -0.00582
      11 <- 22        -0.00934
      11 <- 25         0.00688
      11 <- 27        -0.00186
      11 <- 29         0.00722
      11 <- 34         0.00129
      11 <- 36        -0.00150
      11 <- 40        -0.00142
      11 <- 44        -0.00280
      11 <- 47        -0.00101
      11 <- 48         0.00299
      11 <- 52        -0.00097
      11 <- 57         0.00019
      11 <- 59        -0.00060
      11 <- 63         0.00158
      11 <- 65         0.00037
      11 <- 68         0.00136
      11 <- 73         0.00034
      11 <- 77         0.00048
      11 <- 83         0.00012
      12 <- 14        -0.01721
      12 <- 15         0.00542
      12 <- 16         0.00219
      12 <- 18         0.00753
      12 <- 20        -0.00165
      12 <- 21         0.00097
      12 <- 22         0.00165
      12 <- 24        -0.00195
      12 <- 25        -0.00429
      12 <- 27        -0.00792
      12 <- 29         0.00253
      12 <- 31         0.00238
      12 <- 32        -0.00337
      12 <- 34        -0.00064
      12 <- 36         0.00030
      12 <- 37         0.00219
      12 <- 38        -0.00173
      12 <- 39         0.00054
      12 <- 40        -0.00021
      12 <- 43         0.00030
      12 <- 44         0.00113
      12 <- 47        -0.00219
      12 <- 50        -0.00237
      12 <- 51         0.00024
      12 <- 52         0.00234
      12 <- 54        -0.00135
      12 <- 56        -0.00037
      12 <- 57         0.00059
      12 <- 59        -0.00158
      12 <- 61        -0.00118
      12 <- 63         0.00106
      12 <- 65        -0.00029
      12 <- 66        -0.00053
      12 <- 68        -0.00051
      12 <- 73         0.00026
      12 <- 75        -0.00022
      12 <- 78        -0.00032
      12 <- 84        -0.00018
      13 <- 17         0.00219
      13 <- 19         0.00165
      13 <- 23         0.00165
      13 <- 26         0.00429
      13 <- 28        -0.00792
      13 <- 30         0.00253
      13 <- 33         0.00064
      13 <- 35         0.00030
      13 <- 41         0.00021
      13 <- 45        -0.00113
      13 <- 46         0.00219
      13 <- 53         0.00234
      13 <- 58        -0.00059
      13 <- 60         0.00158
      13 <- 62        -0.00106
      13 <- 64        -0.00029
      13 <- 67         0.00051
      13 <- 74        -0.00026
 
 Excited state symmetry could not be determined.
 Excited State   3:      Singlet-?Sym    9.2467 eV  134.09 nm  f=0.0002  <S**2>=0.000
       7 -> 17         0.00299
       7 -> 19        -0.00364
       7 -> 23        -0.00141
       7 -> 26         0.00094
       7 -> 28        -0.00109
       7 -> 30        -0.00228
       7 -> 35        -0.00035
       7 -> 41        -0.00033
       7 -> 45         0.00010
       7 -> 53        -0.00014
       7 -> 58         0.00085
       7 -> 60         0.00048
       7 -> 64        -0.00022
       7 -> 67        -0.00015
       7 -> 76        -0.00013
       8 -> 17         0.00542
       8 -> 19        -0.00968
       8 -> 23         0.00053
       8 -> 26         0.00263
       8 -> 28         0.00164
       8 -> 30         0.00168
       8 -> 33        -0.00126
       8 -> 35         0.00098
       8 -> 41         0.00129
       8 -> 45         0.00083
       8 -> 49        -0.00030
       8 -> 53         0.00016
       8 -> 58         0.00060
       8 -> 60         0.00013
       8 -> 62        -0.00042
       8 -> 64         0.00090
       8 -> 67         0.00026
       8 -> 69         0.00031
       8 -> 74        -0.00013
       9 -> 17         0.00742
       9 -> 19        -0.00545
       9 -> 23         0.00134
       9 -> 26         0.00101
       9 -> 28         0.00066
       9 -> 30         0.00044
       9 -> 33        -0.00113
       9 -> 35         0.00021
       9 -> 41         0.00099
       9 -> 42         0.00065
       9 -> 45         0.00036
       9 -> 46        -0.00039
       9 -> 49         0.00012
       9 -> 60        -0.00021
       9 -> 62        -0.00019
       9 -> 64         0.00124
       9 -> 67         0.00033
       9 -> 69        -0.00054
       9 -> 72        -0.00012
       9 -> 74        -0.00016
       9 -> 76         0.00011
      10 -> 14        -0.01179
      10 -> 15        -0.04205
      10 -> 16        -0.00741
      10 -> 18        -0.01810
      10 -> 20        -0.00545
      10 -> 21        -0.00592
      10 -> 22        -0.00134
      10 -> 24         0.00218
      10 -> 25         0.00101
      10 -> 27        -0.00066
      10 -> 29        -0.00044
      10 -> 31         0.00282
      10 -> 32        -0.00179
      10 -> 34        -0.00113
      10 -> 36        -0.00021
      10 -> 37         0.00241
      10 -> 38        -0.00080
      10 -> 39        -0.00066
      10 -> 40         0.00099
      10 -> 43         0.00019
      10 -> 44         0.00036
      10 -> 47        -0.00039
      10 -> 48         0.00012
      10 -> 50         0.00015
      10 -> 51        -0.00101
      10 -> 54         0.00075
      10 -> 59        -0.00021
      10 -> 61        -0.00115
      10 -> 63        -0.00019
      10 -> 65        -0.00124
      10 -> 66         0.00118
      10 -> 68         0.00033
      10 -> 70        -0.00054
      10 -> 71        -0.00057
      10 -> 73        -0.00016
      10 -> 75        -0.00010
      10 -> 77         0.00011
      10 -> 78        -0.00010
      11 -> 17        -0.00309
      11 -> 19         0.00422
      11 -> 23        -0.00141
      11 -> 26        -0.00030
      11 -> 28        -0.00047
      11 -> 30        -0.00137
      11 -> 33         0.00040
      11 -> 35        -0.00024
      11 -> 41        -0.00042
      11 -> 45        -0.00038
      11 -> 46        -0.00015
      11 -> 49        -0.00095
      11 -> 58         0.00038
      11 -> 60         0.00038
      11 -> 62         0.00016
      11 -> 64        -0.00076
      11 -> 67        -0.00047
      11 -> 69        -0.00044
      12 -> 17        -0.02416
      12 -> 19         0.00256
      12 -> 23        -0.00042
      12 -> 26        -0.00149
      12 -> 28        -0.00177
      12 -> 30         0.00022
      12 -> 33         0.00069
      12 -> 35         0.00013
      12 -> 41        -0.00038
      12 -> 42        -0.00025
      12 -> 45         0.00035
      12 -> 46        -0.00111
      12 -> 49         0.00018
      12 -> 53        -0.00047
      12 -> 60         0.00012
      12 -> 64        -0.00056
      12 -> 69         0.00010
      12 -> 74         0.00012
      12 -> 76        -0.00014
      13 -> 14         0.14690
      13 -> 15         0.68241
      13 -> 16         0.02416
      13 -> 18        -0.08323
      13 -> 20         0.00256
      13 -> 21        -0.02129
      13 -> 22         0.00042
      13 -> 24        -0.03873
      13 -> 25        -0.00149
      13 -> 27         0.00177
      13 -> 29        -0.00022
      13 -> 31        -0.00298
      13 -> 32        -0.00109
      13 -> 34         0.00069
      13 -> 36        -0.00013
      13 -> 37         0.00202
      13 -> 38        -0.00074
      13 -> 39        -0.00086
      13 -> 40        -0.00038
      13 -> 43        -0.00112
      13 -> 44         0.00035
      13 -> 47        -0.00111
      13 -> 48         0.00018
      13 -> 50         0.00170
      13 -> 52         0.00047
      13 -> 54        -0.00021
      13 -> 56         0.00021
      13 -> 59         0.00012
      13 -> 61         0.00025
      13 -> 65         0.00056
      13 -> 66        -0.00039
      13 -> 70         0.00010
      13 -> 71         0.00097
      13 -> 73         0.00012
      13 -> 75         0.00014
      13 -> 77        -0.00014
      13 -> 78        -0.00016
      13 -> 81         0.00015
       7 <- 17         0.00040
       7 <- 23        -0.00047
       7 <- 28        -0.00046
       7 <- 30        -0.00080
       7 <- 35        -0.00028
       7 <- 41        -0.00025
       7 <- 58         0.00055
       7 <- 60         0.00029
       7 <- 64        -0.00025
       8 <- 17        -0.00125
       8 <- 19        -0.00120
       8 <- 23         0.00158
       8 <- 26         0.00094
       8 <- 28         0.00096
       8 <- 30         0.00112
       8 <- 33        -0.00028
       8 <- 35         0.00024
       8 <- 41         0.00054
       8 <- 45         0.00020
       8 <- 53         0.00013
       8 <- 58         0.00052
       8 <- 62        -0.00038
       8 <- 64         0.00076
       8 <- 67         0.00022
       8 <- 69         0.00022
       8 <- 74        -0.00014
       9 <- 19        -0.00028
       9 <- 23         0.00020
       9 <- 26        -0.00034
       9 <- 28         0.00131
       9 <- 33        -0.00054
       9 <- 35        -0.00038
       9 <- 41         0.00075
       9 <- 42         0.00038
       9 <- 46        -0.00025
       9 <- 53        -0.00018
       9 <- 60        -0.00018
       9 <- 62        -0.00013
       9 <- 64         0.00105
       9 <- 67         0.00028
       9 <- 69        -0.00041
       9 <- 72        -0.00011
       9 <- 74        -0.00015
      10 <- 14         0.00169
      10 <- 15         0.00096
      10 <- 18        -0.00194
      10 <- 20        -0.00028
      10 <- 21        -0.00037
      10 <- 22        -0.00020
      10 <- 24        -0.00150
      10 <- 25        -0.00034
      10 <- 27        -0.00131
      10 <- 31        -0.00230
      10 <- 32        -0.00058
      10 <- 34        -0.00054
      10 <- 36         0.00038
      10 <- 37         0.00038
      10 <- 39        -0.00096
      10 <- 40         0.00075
      10 <- 43         0.00030
      10 <- 47        -0.00024
      10 <- 51        -0.00060
      10 <- 52         0.00017
      10 <- 54         0.00036
      10 <- 59        -0.00018
      10 <- 61        -0.00063
      10 <- 63        -0.00013
      10 <- 65        -0.00105
      10 <- 66         0.00079
      10 <- 68         0.00028
      10 <- 70        -0.00041
      10 <- 71        -0.00052
      10 <- 73        -0.00015
      10 <- 78        -0.00012
      11 <- 17         0.00024
      11 <- 19         0.00125
      11 <- 23        -0.00030
      11 <- 26        -0.00100
      11 <- 28        -0.00044
      11 <- 30        -0.00029
      11 <- 33         0.00035
      11 <- 35        -0.00015
      11 <- 45        -0.00011
      11 <- 49        -0.00060
      11 <- 58         0.00037
      11 <- 60         0.00038
      11 <- 62         0.00012
      11 <- 64        -0.00058
      11 <- 67        -0.00034
      11 <- 69        -0.00030
      11 <- 74         0.00011
      12 <- 17        -0.00022
      12 <- 19         0.00018
      12 <- 23        -0.00033
      12 <- 26        -0.00043
      12 <- 28        -0.00076
      12 <- 30        -0.00030
      12 <- 33         0.00014
      12 <- 35         0.00019
      12 <- 41        -0.00039
      12 <- 42        -0.00019
      12 <- 45         0.00042
      12 <- 46        -0.00083
      12 <- 53        -0.00026
      12 <- 64        -0.00047
      12 <- 69         0.00011
      13 <- 14         0.00063
      13 <- 15        -0.00035
      13 <- 16         0.00022
      13 <- 18        -0.00028
      13 <- 20         0.00018
      13 <- 21         0.00030
      13 <- 22         0.00033
      13 <- 24         0.00066
      13 <- 25        -0.00043
      13 <- 27         0.00076
      13 <- 29         0.00030
      13 <- 31         0.00147
      13 <- 32        -0.00156
      13 <- 34         0.00014
      13 <- 36        -0.00019
      13 <- 37        -0.00102
      13 <- 38         0.00159
      13 <- 39         0.00084
      13 <- 40        -0.00039
      13 <- 44         0.00042
      13 <- 47        -0.00083
      13 <- 50         0.00076
      13 <- 52         0.00026
      13 <- 61         0.00010
      13 <- 65         0.00047
      13 <- 66        -0.00038
      13 <- 70         0.00011
      13 <- 71         0.00042
      13 <- 78        -0.00016
 
 Excited state symmetry could not be determined.
 Excited State   4:      Singlet-?Sym    9.2467 eV  134.08 nm  f=0.0002  <S**2>=0.000
       7 -> 16        -0.00299
       7 -> 20        -0.00364
       7 -> 22         0.00141
       7 -> 25         0.00094
       7 -> 27         0.00109
       7 -> 29         0.00228
       7 -> 36         0.00035
       7 -> 40        -0.00033
       7 -> 44         0.00010
       7 -> 52         0.00014
       7 -> 57         0.00085
       7 -> 59         0.00048
       7 -> 65         0.00022
       7 -> 68        -0.00015
       7 -> 77        -0.00013
       8 -> 16        -0.00542
       8 -> 20        -0.00968
       8 -> 22        -0.00053
       8 -> 25         0.00263
       8 -> 27        -0.00164
       8 -> 29        -0.00168
       8 -> 34        -0.00126
       8 -> 36        -0.00098
       8 -> 40         0.00129
       8 -> 44         0.00083
       8 -> 48        -0.00030
       8 -> 52        -0.00016
       8 -> 57         0.00060
       8 -> 59         0.00013
       8 -> 63        -0.00042
       8 -> 65        -0.00090
       8 -> 68         0.00026
       8 -> 70         0.00031
       8 -> 73        -0.00013
       9 -> 14        -0.01180
       9 -> 15        -0.04205
       9 -> 16         0.00742
       9 -> 18        -0.01810
       9 -> 20         0.00545
       9 -> 21        -0.00592
       9 -> 22         0.00134
       9 -> 24         0.00218
       9 -> 25        -0.00101
       9 -> 27         0.00066
       9 -> 29         0.00044
       9 -> 31         0.00282
       9 -> 32        -0.00179
       9 -> 34         0.00113
       9 -> 36         0.00021
       9 -> 37         0.00241
       9 -> 38        -0.00080
       9 -> 39        -0.00066
       9 -> 40        -0.00099
       9 -> 43         0.00019
       9 -> 44        -0.00036
       9 -> 47         0.00039
       9 -> 48        -0.00012
       9 -> 50         0.00015
       9 -> 51        -0.00101
       9 -> 54         0.00074
       9 -> 59         0.00021
       9 -> 61        -0.00115
       9 -> 63         0.00019
       9 -> 65         0.00124
       9 -> 66         0.00118
       9 -> 68        -0.00033
       9 -> 70         0.00054
       9 -> 71        -0.00057
       9 -> 73         0.00016
       9 -> 75        -0.00010
       9 -> 77        -0.00011
       9 -> 78        -0.00010
      10 -> 17         0.00742
      10 -> 19        -0.00545
      10 -> 23         0.00134
      10 -> 26         0.00101
      10 -> 28         0.00066
      10 -> 30         0.00044
      10 -> 33        -0.00113
      10 -> 35         0.00021
      10 -> 41         0.00099
      10 -> 42        -0.00065
      10 -> 45         0.00036
      10 -> 46        -0.00039
      10 -> 49         0.00012
      10 -> 60        -0.00021
      10 -> 62        -0.00019
      10 -> 64         0.00124
      10 -> 67         0.00033
      10 -> 69        -0.00054
      10 -> 72         0.00012
      10 -> 74        -0.00016
      10 -> 76         0.00011
      11 -> 16         0.00309
      11 -> 20         0.00422
      11 -> 22         0.00141
      11 -> 25        -0.00030
      11 -> 27         0.00047
      11 -> 29         0.00137
      11 -> 34         0.00040
      11 -> 36         0.00024
      11 -> 40        -0.00042
      11 -> 44        -0.00038
      11 -> 47        -0.00015
      11 -> 48        -0.00095
      11 -> 57         0.00038
      11 -> 59         0.00038
      11 -> 63         0.00016
      11 -> 65         0.00076
      11 -> 68        -0.00047
      11 -> 70        -0.00044
      12 -> 14         0.14690
      12 -> 15         0.68241
      12 -> 16        -0.02416
      12 -> 18        -0.08323
      12 -> 20        -0.00256
      12 -> 21        -0.02129
      12 -> 22        -0.00042
      12 -> 24        -0.03873
      12 -> 25         0.00149
      12 -> 27        -0.00177
      12 -> 29         0.00022
      12 -> 31        -0.00298
      12 -> 32        -0.00109
      12 -> 34        -0.00069
      12 -> 36         0.00013
      12 -> 37         0.00202
      12 -> 38        -0.00074
      12 -> 39        -0.00086
      12 -> 40         0.00038
      12 -> 43        -0.00112
      12 -> 44        -0.00035
      12 -> 47         0.00111
      12 -> 48        -0.00018
      12 -> 50         0.00170
      12 -> 52        -0.00047
      12 -> 54        -0.00021
      12 -> 56         0.00021
      12 -> 59        -0.00012
      12 -> 61         0.00025
      12 -> 65        -0.00056
      12 -> 66        -0.00039
      12 -> 70        -0.00010
      12 -> 71         0.00097
      12 -> 73        -0.00012
      12 -> 75         0.00014
      12 -> 77         0.00014
      12 -> 78        -0.00016
      12 -> 81         0.00015
      13 -> 17        -0.02416
      13 -> 19         0.00256
      13 -> 23        -0.00042
      13 -> 26        -0.00149
      13 -> 28        -0.00177
      13 -> 30         0.00022
      13 -> 33         0.00069
      13 -> 35         0.00013
      13 -> 41        -0.00038
      13 -> 42         0.00026
      13 -> 45         0.00035
      13 -> 46        -0.00111
      13 -> 49         0.00018
      13 -> 53        -0.00047
      13 -> 60         0.00012
      13 -> 64        -0.00056
      13 -> 69         0.00010
      13 -> 74         0.00012
      13 -> 76        -0.00014
       7 <- 16        -0.00040
       7 <- 22         0.00047
       7 <- 27         0.00046
       7 <- 29         0.00080
       7 <- 36         0.00028
       7 <- 40        -0.00025
       7 <- 57         0.00055
       7 <- 59         0.00029
       7 <- 65         0.00025
       8 <- 16         0.00125
       8 <- 20        -0.00120
       8 <- 22        -0.00158
       8 <- 25         0.00094
       8 <- 27        -0.00096
       8 <- 29        -0.00112
       8 <- 34        -0.00028
       8 <- 36        -0.00025
       8 <- 40         0.00054
       8 <- 44         0.00020
       8 <- 52        -0.00013
       8 <- 57         0.00052
       8 <- 63        -0.00038
       8 <- 65        -0.00076
       8 <- 68         0.00022
       8 <- 70         0.00022
       8 <- 73        -0.00014
       9 <- 14         0.00169
       9 <- 15         0.00096
       9 <- 18        -0.00194
       9 <- 20         0.00028
       9 <- 21        -0.00037
       9 <- 22         0.00020
       9 <- 24        -0.00150
       9 <- 25         0.00034
       9 <- 27         0.00131
       9 <- 31        -0.00230
       9 <- 32        -0.00058
       9 <- 34         0.00054
       9 <- 36        -0.00038
       9 <- 37         0.00038
       9 <- 39        -0.00096
       9 <- 40        -0.00075
       9 <- 43         0.00030
       9 <- 47         0.00025
       9 <- 51        -0.00059
       9 <- 52        -0.00018
       9 <- 54         0.00036
       9 <- 59         0.00018
       9 <- 61        -0.00063
       9 <- 63         0.00013
       9 <- 65         0.00105
       9 <- 66         0.00079
       9 <- 68        -0.00028
       9 <- 70         0.00041
       9 <- 71        -0.00052
       9 <- 73         0.00015
       9 <- 78        -0.00012
      10 <- 19        -0.00028
      10 <- 23         0.00020
      10 <- 26        -0.00034
      10 <- 28         0.00131
      10 <- 33        -0.00054
      10 <- 35        -0.00038
      10 <- 41         0.00075
      10 <- 42        -0.00038
      10 <- 46        -0.00024
      10 <- 53        -0.00017
      10 <- 60        -0.00018
      10 <- 62        -0.00013
      10 <- 64         0.00105
      10 <- 67         0.00028
      10 <- 69        -0.00041
      10 <- 72         0.00011
      10 <- 74        -0.00015
      11 <- 16        -0.00024
      11 <- 20         0.00125
      11 <- 22         0.00030
      11 <- 25        -0.00100
      11 <- 27         0.00044
      11 <- 29         0.00029
      11 <- 34         0.00035
      11 <- 36         0.00015
      11 <- 44        -0.00011
      11 <- 48        -0.00060
      11 <- 57         0.00037
      11 <- 59         0.00038
      11 <- 63         0.00012
      11 <- 65         0.00058
      11 <- 68        -0.00034
      11 <- 70        -0.00030
      11 <- 73         0.00011
      12 <- 14         0.00063
      12 <- 15        -0.00035
      12 <- 16        -0.00022
      12 <- 18        -0.00028
      12 <- 20        -0.00018
      12 <- 21         0.00030
      12 <- 22        -0.00033
      12 <- 24         0.00066
      12 <- 25         0.00043
      12 <- 27        -0.00076
      12 <- 29        -0.00030
      12 <- 31         0.00147
      12 <- 32        -0.00156
      12 <- 34        -0.00014
      12 <- 36         0.00019
      12 <- 37        -0.00102
      12 <- 38         0.00159
      12 <- 39         0.00084
      12 <- 40         0.00039
      12 <- 44        -0.00042
      12 <- 47         0.00083
      12 <- 48        -0.00010
      12 <- 50         0.00076
      12 <- 52        -0.00026
      12 <- 61         0.00010
      12 <- 65        -0.00047
      12 <- 66        -0.00038
      12 <- 70        -0.00011
      12 <- 71         0.00042
      12 <- 78        -0.00016
      13 <- 17        -0.00022
      13 <- 19         0.00018
      13 <- 23        -0.00033
      13 <- 26        -0.00043
      13 <- 28        -0.00076
      13 <- 30        -0.00030
      13 <- 33         0.00014
      13 <- 35         0.00019
      13 <- 41        -0.00039
      13 <- 42         0.00019
      13 <- 45         0.00042
      13 <- 46        -0.00083
      13 <- 53        -0.00026
      13 <- 64        -0.00047
      13 <- 69         0.00011
 
 Excited state symmetry could not be determined.
 Excited State   5:      Singlet-?Sym   10.5540 eV  117.48 nm  f=0.0000  <S**2>=0.000
       7 -> 42         0.00055
       8 -> 42         0.00101
       9 -> 17        -0.03197
       9 -> 19        -0.00046
       9 -> 23        -0.00356
       9 -> 26         0.00415
       9 -> 28         0.00034
       9 -> 30         0.00910
       9 -> 33        -0.00165
       9 -> 35         0.00012
       9 -> 41         0.00048
       9 -> 45         0.00054
       9 -> 49        -0.00016
       9 -> 53        -0.00011
       9 -> 62        -0.00028
       9 -> 64        -0.00041
       9 -> 67         0.00012
       9 -> 69         0.00027
      10 -> 16        -0.03198
      10 -> 20         0.00046
      10 -> 22        -0.00356
      10 -> 25        -0.00415
      10 -> 27         0.00034
[...]
      12 <- 27         0.00163
      12 <- 29        -0.00584
      12 <- 34        -0.00328
      12 <- 40         0.00031
      12 <- 44         0.00049
      12 <- 47        -0.00015
      12 <- 52         0.00013
      12 <- 57         0.00156
      12 <- 59         0.00068
      12 <- 68         0.00039
      12 <- 70        -0.00014
      12 <- 73         0.00049
      12 <- 77         0.00045
      13 <- 17         0.00135
      13 <- 19         0.00458
      13 <- 23        -0.00330
      13 <- 26        -0.00462
      13 <- 28        -0.00163
      13 <- 30         0.00584
      13 <- 33        -0.00328
      13 <- 41         0.00031
      13 <- 45         0.00049
      13 <- 46        -0.00015
      13 <- 53        -0.00013
      13 <- 58         0.00156
      13 <- 60         0.00068
      13 <- 67         0.00039
      13 <- 69        -0.00014
      13 <- 74         0.00049
      13 <- 76         0.00045
 
 Excited state symmetry could not be determined.
 Excited State  49:      Singlet-?Sym   19.1238 eV   64.83 nm  f=0.0000  <S**2>=0.000
       7 -> 42         0.00066
       7 -> 55         0.00036
       7 -> 72        -0.00016
       8 -> 55         0.00054
       8 -> 72         0.00036
       9 -> 17         0.00407
       9 -> 19         0.04172
       9 -> 23        -0.01790
       9 -> 26        -0.01026
       9 -> 28         0.02411
       9 -> 30        -0.01784
       9 -> 33         0.00377
       9 -> 35        -0.00672
       9 -> 41        -0.00172
       9 -> 45         0.00078
       9 -> 46        -0.00078
       9 -> 49         0.00110
       9 -> 53         0.00055
       9 -> 58        -0.00050
       9 -> 60        -0.00014
       9 -> 62        -0.00024
       9 -> 76        -0.00010
      10 -> 16         0.00407
      10 -> 20        -0.04172
      10 -> 22        -0.01790
      10 -> 25         0.01026
      10 -> 27         0.02412
      10 -> 29        -0.01784
      10 -> 34        -0.00377
      10 -> 36        -0.00672
      10 -> 40         0.00172
      10 -> 44        -0.00078
      10 -> 47         0.00078
      10 -> 48        -0.00110
      10 -> 52         0.00055
      10 -> 57         0.00050
      10 -> 59         0.00014
      10 -> 63         0.00024
      10 -> 77         0.00010
      11 -> 42        -0.00010
      11 -> 55        -0.00016
      11 -> 72         0.00010
      12 -> 17         0.02171
      12 -> 19         0.03145
      12 -> 23         0.00368
      12 -> 26         0.07982
      12 -> 28         0.42951
      12 -> 30        -0.23320
      12 -> 33         0.00564
      12 -> 35        -0.00733
      12 -> 41        -0.00188
      12 -> 45         0.00169
      12 -> 46        -0.00423
      12 -> 49         0.00370
      12 -> 53         0.00011
      12 -> 58        -0.00215
      12 -> 60        -0.00109
      12 -> 62         0.00063
      12 -> 64        -0.00053
      12 -> 69        -0.00023
      12 -> 74        -0.00027
      12 -> 76         0.00025
      13 -> 16         0.02171
      13 -> 20        -0.03145
      13 -> 22         0.00367
      13 -> 25        -0.07982
      13 -> 27         0.42957
      13 -> 29        -0.23320
      13 -> 34        -0.00564
      13 -> 36        -0.00733
      13 -> 40         0.00188
      13 -> 44        -0.00169
      13 -> 47         0.00423
      13 -> 48        -0.00370
      13 -> 52         0.00011
      13 -> 57         0.00215
      13 -> 59         0.00109
      13 -> 63        -0.00063
      13 -> 65        -0.00053
      13 -> 70         0.00023
      13 -> 73         0.00027
      13 -> 77        -0.00025
       7 <- 42         0.00022
       7 <- 55        -0.00195
       8 <- 42        -0.00018
       8 <- 55        -0.00139
       8 <- 72         0.00018
       9 <- 17         0.00034
       9 <- 19         0.00034
       9 <- 23        -0.00011
       9 <- 28        -0.00026
       9 <- 33        -0.00066
       9 <- 35        -0.00042
       9 <- 62        -0.00014
       9 <- 64        -0.00011
      10 <- 16         0.00034
      10 <- 20        -0.00034
      10 <- 22        -0.00011
      10 <- 27        -0.00026
      10 <- 34         0.00066
      10 <- 36        -0.00042
      10 <- 63         0.00014
      10 <- 65        -0.00011
      11 <- 55        -0.00069
      11 <- 72         0.00014
      12 <- 17         0.00059
      12 <- 19         0.00086
      12 <- 23        -0.00064
      12 <- 26        -0.00175
      12 <- 28         0.00038
      12 <- 30         0.00049
      12 <- 33        -0.00036
      12 <- 41         0.00013
      12 <- 46         0.00035
      12 <- 49        -0.00015
      12 <- 58         0.00031
      12 <- 60         0.00012
      13 <- 16         0.00059
      13 <- 20        -0.00086
      13 <- 22        -0.00064
      13 <- 25         0.00175
      13 <- 27         0.00038
      13 <- 29         0.00049
      13 <- 34         0.00036
      13 <- 40        -0.00013
      13 <- 47        -0.00035
      13 <- 48         0.00015
      13 <- 57        -0.00030
      13 <- 59        -0.00012
 
 Excited state symmetry could not be determined.
 Excited State  50:      Singlet-?Sym   19.1952 eV   64.59 nm  f=0.1051  <S**2>=0.000
       7 -> 14        -0.03849
       7 -> 15         0.03326
       7 -> 18        -0.01297
       7 -> 21         0.00725
       7 -> 24        -0.02038
       7 -> 31         0.00556
       7 -> 32         0.01048
       7 -> 37         0.00588
       7 -> 38        -0.00681
       7 -> 39        -0.00413
       7 -> 43        -0.00028
       7 -> 50         0.00107
       7 -> 51         0.00139
       7 -> 54        -0.00090
       7 -> 56        -0.00046
       7 -> 61         0.00077
       7 -> 66         0.00018
       7 -> 71        -0.00079
       7 -> 75         0.00016
       7 -> 78         0.00069
       7 -> 81        -0.00024
       7 -> 84        -0.00021
       7 -> 86         0.00019
       8 -> 14         0.29843
       8 -> 15        -0.13496
       8 -> 18         0.02895
       8 -> 21        -0.00876
       8 -> 24         0.00818
       8 -> 31         0.01685
       8 -> 32         0.00293
       8 -> 37         0.00042
       8 -> 38        -0.00987
       8 -> 39         0.00413
       8 -> 43        -0.00092
       8 -> 50        -0.00039
       8 -> 51        -0.00324
       8 -> 54         0.00013
       8 -> 56        -0.00024
       8 -> 61        -0.00022
       8 -> 66        -0.00236
       8 -> 71        -0.00014
       8 -> 75        -0.00129
       8 -> 78         0.00138
       8 -> 84        -0.00014
       8 -> 86         0.00017
       9 -> 16         0.06705
       9 -> 20         0.10301
       9 -> 22         0.12844
       9 -> 25        -0.06751
       9 -> 27         0.02079
       9 -> 29         0.01537
       9 -> 34         0.00955
       9 -> 36        -0.00265
       9 -> 40        -0.00327
       9 -> 44        -0.00230
       9 -> 47        -0.00229
       9 -> 48        -0.00190
       9 -> 52        -0.00147
       9 -> 57        -0.00196
       9 -> 59        -0.00196
       9 -> 63        -0.00049
       9 -> 65         0.00028
       9 -> 68        -0.00084
       9 -> 70         0.00179
       9 -> 73        -0.00052
       9 -> 77        -0.00073
       9 -> 79        -0.00167
      10 -> 17        -0.06705
      10 -> 19         0.10301
      10 -> 23        -0.12845
      10 -> 26        -0.06751
      10 -> 28        -0.02079
      10 -> 30        -0.01537
      10 -> 33         0.00955
      10 -> 35         0.00265
      10 -> 41        -0.00327
      10 -> 45        -0.00230
      10 -> 46        -0.00229
      10 -> 49        -0.00190
      10 -> 53         0.00147
      10 -> 58        -0.00196
      10 -> 60        -0.00196
      10 -> 62        -0.00049
      10 -> 64        -0.00028
      10 -> 67        -0.00084
      10 -> 69         0.00179
      10 -> 74        -0.00052
      10 -> 76        -0.00073
      10 -> 80        -0.00167
      11 -> 14         0.02688
      11 -> 15        -0.00081
      11 -> 18        -0.07756
      11 -> 21         0.24900
      11 -> 24         0.07246
      11 -> 31        -0.03338
      11 -> 32        -0.02592
      11 -> 37         0.00733
      11 -> 38        -0.00842
      11 -> 39         0.00081
      11 -> 43         0.00362
      11 -> 50         0.00171
      11 -> 51        -0.00037
      11 -> 54        -0.00621
      11 -> 56        -0.00155
      11 -> 61        -0.00137
      11 -> 66        -0.00034
      11 -> 71        -0.00177
      11 -> 75         0.00097
      11 -> 78         0.00121
      11 -> 81        -0.00057
      11 -> 84        -0.00018
      11 -> 86         0.00014
      12 -> 16        -0.01720
      12 -> 20        -0.01971
      12 -> 22        -0.25210
      12 -> 25        -0.08193
      12 -> 27        -0.20185
      12 -> 29        -0.08858
      12 -> 34        -0.02182
      12 -> 36        -0.00250
      12 -> 40         0.00082
      12 -> 44        -0.00113
      12 -> 47        -0.00257
      12 -> 48         0.00172
      12 -> 52        -0.00048
      12 -> 57        -0.00766
      12 -> 59        -0.00229
      12 -> 63         0.00251
      12 -> 65         0.00050
      12 -> 68         0.00201
      12 -> 70        -0.00048
      12 -> 73         0.00044
      12 -> 77         0.00107
      12 -> 79         0.00065
      13 -> 17         0.01720
      13 -> 19        -0.01971
      13 -> 23         0.25210
      13 -> 26        -0.08194
      13 -> 28         0.20186
      13 -> 30         0.08857
      13 -> 33        -0.02182
      13 -> 35         0.00250
      13 -> 41         0.00082
      13 -> 45        -0.00113
      13 -> 46        -0.00257
      13 -> 49         0.00172
      13 -> 53         0.00048
      13 -> 58        -0.00766
      13 -> 60        -0.00229
      13 -> 62         0.00251
      13 -> 64        -0.00050
      13 -> 67         0.00201
      13 -> 69        -0.00048
      13 -> 74         0.00044
      13 -> 76         0.00107
      13 -> 80         0.00065
       7 <- 14        -0.00256
       7 <- 15         0.00502
       7 <- 18        -0.00324
       7 <- 21        -0.00158
       7 <- 24        -0.00379
       7 <- 31         0.00255
       7 <- 32         0.00202
       7 <- 37         0.00322
       7 <- 38        -0.00437
       7 <- 39        -0.00162
       7 <- 43        -0.00062
       7 <- 50         0.00021
       7 <- 51         0.00098
       7 <- 54        -0.00062
       7 <- 56         0.00057
       7 <- 61         0.00034
       7 <- 66         0.00021
       7 <- 71        -0.00042
       7 <- 78         0.00039
       7 <- 81        -0.00020
       7 <- 84        -0.00013
       7 <- 86         0.00014
       8 <- 14        -0.01439
       8 <- 15         0.00187
       8 <- 18         0.00122
       8 <- 21         0.00027
       8 <- 24        -0.00062
       8 <- 31         0.00205
       8 <- 32         0.00347
       8 <- 37         0.00091
       8 <- 38        -0.00466
       8 <- 39         0.00219
       8 <- 43         0.00118
       8 <- 50        -0.00063
       8 <- 51        -0.00237
       8 <- 56         0.00044
       8 <- 61        -0.00024
       8 <- 66        -0.00126
       8 <- 75        -0.00066
       8 <- 78         0.00084
       8 <- 81         0.00011
       8 <- 86         0.00012
       9 <- 16        -0.01041
       9 <- 20        -0.00664
       9 <- 22         0.00725
       9 <- 25        -0.00323
       9 <- 27         0.00202
       9 <- 29         0.00038
       9 <- 34         0.00308
       9 <- 36        -0.00149
       9 <- 40        -0.00096
       9 <- 44        -0.00158
       9 <- 47        -0.00126
       9 <- 48        -0.00050
       9 <- 52        -0.00178
       9 <- 57        -0.00103
       9 <- 59        -0.00188
       9 <- 63        -0.00033
       9 <- 68        -0.00032
       9 <- 70         0.00121
       9 <- 73        -0.00032
       9 <- 77        -0.00054
       9 <- 79        -0.00136
      10 <- 17         0.01041
      10 <- 19        -0.00665
      10 <- 23        -0.00725
      10 <- 26        -0.00323
      10 <- 28        -0.00202
      10 <- 30        -0.00038
      10 <- 33         0.00308
      10 <- 35         0.00149
      10 <- 41        -0.00096
      10 <- 45        -0.00158
      10 <- 46        -0.00126
      10 <- 49        -0.00050
      10 <- 53         0.00178
      10 <- 58        -0.00103
      10 <- 60        -0.00188
      10 <- 62        -0.00033
      10 <- 67        -0.00032
      10 <- 69         0.00121
      10 <- 74        -0.00032
      10 <- 76        -0.00054
      10 <- 80        -0.00136
      11 <- 14        -0.01009
      11 <- 15         0.00543
      11 <- 18         0.01121
      11 <- 21        -0.00905
      11 <- 24         0.00487
      11 <- 31        -0.00203
      11 <- 32        -0.00625
      11 <- 37         0.00479
      11 <- 38        -0.00487
      11 <- 39        -0.00116
      11 <- 43         0.00111
      11 <- 50         0.00088
      11 <- 51         0.00021
      11 <- 54        -0.00374
      11 <- 56        -0.00080
      11 <- 61        -0.00094
      11 <- 71        -0.00111
      11 <- 75         0.00071
      11 <- 78         0.00090
      11 <- 81        -0.00043
      11 <- 84        -0.00011
      11 <- 86         0.00012
      12 <- 16        -0.00082
      12 <- 20         0.00379
      12 <- 22         0.01811
      12 <- 25         0.00569
      12 <- 27        -0.00189
      12 <- 29        -0.00559
      12 <- 34        -0.00529
      12 <- 36        -0.00094
      12 <- 40        -0.00021
      12 <- 44        -0.00128
      12 <- 47        -0.00011
      12 <- 52         0.00037
      12 <- 57        -0.00514
      12 <- 59        -0.00122
      12 <- 63         0.00161
      12 <- 65         0.00014
      12 <- 68         0.00149
      12 <- 70        -0.00016
      12 <- 73         0.00049
      12 <- 77         0.00066
      12 <- 79         0.00049
      13 <- 17         0.00082
      13 <- 19         0.00379
      13 <- 23        -0.01811
      13 <- 26         0.00569
      13 <- 28         0.00189
      13 <- 30         0.00559
      13 <- 33        -0.00529
      13 <- 35         0.00094
      13 <- 41        -0.00021
      13 <- 45        -0.00127
      13 <- 46        -0.00011
      13 <- 53        -0.00037
      13 <- 58        -0.00514
      13 <- 60        -0.00122
      13 <- 62         0.00161
      13 <- 64        -0.00014
      13 <- 67         0.00149
      13 <- 69        -0.00016
      13 <- 74         0.00049
      13 <- 76         0.00066
      13 <- 80         0.00049
 SavETr:  write IOETrn=   770 NScale= 10 NData=  16 NLR=1 NState=   50 LETran=     910.

 **********************************************************************

            Population analysis using the SCF Density.

 **********************************************************************

 Alpha  occ. eigenvalues -- -101.68251 -10.34139  -9.56787  -7.31453  -7.30546
 Alpha  occ. eigenvalues --   -7.30546  -0.94801  -0.77522  -0.53853  -0.53853
 Alpha  occ. eigenvalues --   -0.49382  -0.38043  -0.38043
 Alpha virt. eigenvalues --    0.09476   0.13385   0.17921   0.17921   0.24933
 Alpha virt. eigenvalues --    0.28665   0.28665   0.36125   0.43393   0.43394
 Alpha virt. eigenvalues --    0.46187   0.48451   0.48452   0.54037   0.54038
 Alpha virt. eigenvalues --    0.55849   0.55849   0.56209   0.72916   0.89618
 Alpha virt. eigenvalues --    0.89618   1.01791   1.01791   1.02236   1.12231
 Alpha virt. eigenvalues --    1.51532   1.55482   1.55483   1.58244   1.74576
 Alpha virt. eigenvalues --    1.81191   1.81192   1.86601   1.86601   1.90860
 Alpha virt. eigenvalues --    1.90860   1.90898   2.01801   2.01815   2.01815
 Alpha virt. eigenvalues --    2.16000   2.18637   2.19020   2.30954   2.30955
 Alpha virt. eigenvalues --    2.34339   2.34339   2.35631   2.38399   2.38399
 Alpha virt. eigenvalues --    2.61744   2.61745   2.84086   2.86279   2.86279
 Alpha virt. eigenvalues --    3.08844   3.08845   3.12169   3.42813   3.46464
 Alpha virt. eigenvalues --    3.46464   3.57782   3.64204   3.64204   4.14793
 Alpha virt. eigenvalues --    4.25056   4.25057   4.47663  10.83550  10.83550
 Alpha virt. eigenvalues --   11.29072  22.11033  25.04657
          Condensed to atoms (all electrons):
               1          2          3          4          5
     1  C    4.769680   0.409834   0.409834   0.409834   0.273136
     2  H    0.409834   0.535346  -0.027133  -0.027133  -0.033710
     3  H    0.409834  -0.027133   0.535345  -0.027133  -0.033710
     4  H    0.409834  -0.027133  -0.027133   0.535345  -0.033710
     5  Cl   0.273136  -0.033710  -0.033710  -0.033710  16.984066
 Mulliken charges:
               1
     1  C   -0.272318
     2  H    0.142796
     3  H    0.142797
     4  H    0.142797
     5  Cl  -0.156073
 Sum of Mulliken charges =   0.00000
 Mulliken charges with hydrogens summed into heavy atoms:
               1
     1  C    0.156073
     5  Cl  -0.156073
 Electronic spatial extent (au):  <R**2>=            131.4462
 Charge=              0.0000 electrons
 Dipole moment (field-independent basis, Debye):
    X=              0.0000    Y=              0.0000    Z=             -2.0011  Tot=              2.0011
 Quadrupole moment (field-independent basis, Debye-Ang):
   XX=            -19.7292   YY=            -19.7292   ZZ=            -17.9205
   XY=              0.0000   XZ=              0.0000   YZ=              0.0000
 Traceless Quadrupole moment (field-independent basis, Debye-Ang):
   XX=             -0.6029   YY=             -0.6029   ZZ=              1.2058
   XY=              0.0000   XZ=              0.0000   YZ=              0.0000
 Octapole moment (field-independent basis, Debye-Ang**2):
  XXX=              0.0000  YYY=              0.8255  ZZZ=              1.7303  XYY=              0.0000
  XXY=             -0.8255  XXZ=             -0.8973  XZZ=              0.0000  YZZ=              0.0000
  YYZ=             -0.8973  XYZ=              0.0000
 Hexadecapole moment (field-independent basis, Debye-Ang**3):
 XXXX=            -27.8534 YYYY=            -27.8534 ZZZZ=           -116.0437 XXXY=              0.0000
 XXXZ=              0.0000 YYYX=              0.0000 YYYZ=             -1.2422 ZZZX=              0.0000
 ZZZY=              0.0000 XXYY=             -9.2845 XXZZ=            -23.8301 YYZZ=            -23.8301
 XXYZ=              1.2421 YYXZ=              0.0000 ZZXY=              0.0000
 N-N= 5.110818799675D+01 E-N=-1.289371792213D+03  KE= 4.992393678874D+02

 Test job not archived.
 1|1|UNPC-ROG|SP|RwB97XD TD-FC|def2TZVP|C1H3Cl1|SOBEREVA|13-Apr-2025|0|
 |# wb97xd/def2TZVP TD(nstates=50) IOp(9/40=4) nosymm||Opted at B3LYP/d
 ef2-TZVP level||0,1|C,0,0.,0.,-1.133952|H,0,0.,1.030851,-1.476258|H,0,
 -0.892743,-0.515426,-1.476258|H,0,0.892743,-0.515426,-1.476258|Cl,0,0.
 ,0.,0.660734||Version=EM64W-G16RevB.01|HF=-500.1245324|RMSD=8.513e-009
 |PG=C03 [C3(C1Cl1),X(H3)]||@


 DIATOMIC MOLECULES ARE PECULIAR BECAUSE THEY ONLY HAVE TWO ENDS,
 AND THESE ENDS ARE VERY CLOSE TOGETHER.
 KLAUS RUEDENBERG, REV.MOD.PHYS. PG 176, 32, (1960)
 Job cpu time:       0 days  0 hours  1 minutes 22.0 seconds.
 Elapsed time:       0 days  0 hours  1 minutes 21.7 seconds.
 File lengths (MBytes):  RWF=    234 Int=      0 D2E=      0 Chk=     12 Scr=      1
 Normal termination of Gaussian 16 at Sun Apr 13 06:54:21 2025.
