[Molden Format]
[Atoms] (AU)
CL   1   17           6.1911994011         6.4561910102         0.0141436128
O    2    8           0.9432409781        -1.8213763372         0.0143325854
O    3    8          -4.9338072721        -4.9792976654        -0.0036198127
N    4    7          -4.0114319503        -0.6336834673         0.0479697105
N    5    7         -10.9491834747        -0.1977236502        -0.0593667334
C    6    6           3.2899028807        -2.8505211851        -0.0026749497
C    7    6           5.3415785351        -1.0558482838        -0.0083441281
C    8    6          -0.7085686282        -3.7870694529         0.0184899829
C    9    6           3.1704721895        -5.4377452235        -0.0100448816
C   10    6           0.5673744517        -6.0519062142         0.0039390918
C   11    6           4.8321083717         1.5302419189         0.0031832013
C   12    6           7.8363949659        -1.9077368211        -0.0242178275
C   13    6          -3.3375556139        -3.2212854509         0.0362534085
C   14    6          -6.4333049526         0.4232403546         0.0196238186
C   15    6           6.8174546391         3.2648215295        -0.0013521414
C   16    6           9.8211743155        -0.1737241284        -0.0289421428
C   17    6           9.3118931247         2.4123660743        -0.0172258408
C   18    6          -6.7641959972         3.0240704211         0.0368203263
C   19    6          -8.5579240355        -1.0964773955        -0.0281862524
C   20    6          -9.1953286576         4.0205230071         0.0060177905
C   21    6         -11.2061862277         2.3439579886        -0.0416033079
H   22    1           4.7349764488        -6.7505379628        -0.0232729644
H   23    1          -0.2633491530        -7.9178217905         0.0035611465
H   24    1           2.9032649154         2.2415348326         0.0160333390
H   25    1           8.2946535513        -3.9099016510        -0.0334774855
H   26    1          -2.5620120120         0.6312992010         0.0736699858
H   27    1          11.7636237998        -0.8366400532        -0.0414143353
H   28    1          10.8779091648         3.7417884036        -0.0206273479
H   29    1          -5.1520706396         4.2951002131         0.0736699858
H   30    1          -8.5450738978        -3.1353029122        -0.0461386506
H   31    1          -9.5065665505         6.0449866053         0.0183010103
H   32    1         -13.1399429719         3.0255822020        -0.0671146106
[GTO]
  1 0
 s    6  1.00
    25180.1000000000         0.0018330000
     3780.3500000000         0.0140340000
      860.4740000000         0.0690970000
      242.1450000000         0.2374520000
       77.3349000000         0.4830340000
       26.2470000000         0.3398560000
 s    6  1.00
      491.7650000000        -0.0022974000
      116.9840000000        -0.0307140000
       37.4153000000        -0.1125280000
       13.7834000000         0.0450160000
        5.4521500000         0.5893530000
        2.2258800000         0.4652060000
 p    6  1.00
      491.7650000000         0.0039894000
      116.9840000000         0.0303180000
       37.4153000000         0.1298800000
       13.7834000000         0.3279510000
        5.4521500000         0.4535270000
        2.2258800000         0.2521540000
 s    3  1.00
        3.1864900000        -0.2518300000
        1.1442700000         0.0615890000
        0.4203770000         1.0601800000
 p    3  1.00
        3.1864900000        -0.0142990000
        1.1442700000         0.3235720000
        0.4203770000         0.7435070000
 s    1  1.00
        0.1426570000         1.0000000000
 p    1  1.00
        0.1426570000         1.0000000000
 d    1  1.00
        0.7500000000         1.0000000000

  2 0
 s    6  1.00
     5484.6717000000         0.0018311000
      825.2349500000         0.0139501000
      188.0469600000         0.0684451000
       52.9645000000         0.2327143000
       16.8975700000         0.4701930000
        5.7996353000         0.3585209000
 s    3  1.00
       15.5396160000        -0.1107775000
        3.5999336000        -0.1480263000
        1.0137618000         1.1307670000
 p    3  1.00
       15.5396160000         0.0708743000
        3.5999336000         0.3397528000
        1.0137618000         0.7271586000
 s    1  1.00
        0.2700058000         1.0000000000
 p    1  1.00
        0.2700058000         1.0000000000
 d    1  1.00
        0.8000000000         1.0000000000

  3 0
 s    6  1.00
     5484.6717000000         0.0018311000
      825.2349500000         0.0139501000
      188.0469600000         0.0684451000
       52.9645000000         0.2327143000
       16.8975700000         0.4701930000
        5.7996353000         0.3585209000
 s    3  1.00
       15.5396160000        -0.1107775000
        3.5999336000        -0.1480263000
        1.0137618000         1.1307670000
 p    3  1.00
       15.5396160000         0.0708743000
        3.5999336000         0.3397528000
        1.0137618000         0.7271586000
 s    1  1.00
        0.2700058000         1.0000000000
 p    1  1.00
        0.2700058000         1.0000000000
 d    1  1.00
        0.8000000000         1.0000000000

  4 0
 s    6  1.00
     4173.5110000000         0.0018348000
      627.4579000000         0.0139950000
      142.9021000000         0.0685870000
       40.2343300000         0.2322410000
       12.8202100000         0.4690700000
        4.3904370000         0.3604550000
 s    3  1.00
       11.6263580000        -0.1149610000
        2.7162800000        -0.1691180000
        0.7722180000         1.1458520000
 p    3  1.00
       11.6263580000         0.0675800000
        2.7162800000         0.3239070000
        0.7722180000         0.7408950000
 s    1  1.00
        0.2120313000         1.0000000000
 p    1  1.00
        0.2120313000         1.0000000000
 d    1  1.00
        0.8000000000         1.0000000000

  5 0
 s    6  1.00
     4173.5110000000         0.0018348000
      627.4579000000         0.0139950000
      142.9021000000         0.0685870000
       40.2343300000         0.2322410000
       12.8202100000         0.4690700000
        4.3904370000         0.3604550000
 s    3  1.00
       11.6263580000        -0.1149610000
        2.7162800000        -0.1691180000
        0.7722180000         1.1458520000
 p    3  1.00
       11.6263580000         0.0675800000
        2.7162800000         0.3239070000
        0.7722180000         0.7408950000
 s    1  1.00
        0.2120313000         1.0000000000
 p    1  1.00
        0.2120313000         1.0000000000
 d    1  1.00
        0.8000000000         1.0000000000

  6 0
 s    6  1.00
     3047.5249000000         0.0018347000
      457.3695100000         0.0140373000
      103.9486900000         0.0688426000
       29.2101550000         0.2321844000
        9.2866630000         0.4679413000
        3.1639270000         0.3623120000
 s    3  1.00
        7.8682724000        -0.1193324000
        1.8812885000        -0.1608542000
        0.5442493000         1.1434564000
 p    3  1.00
        7.8682724000         0.0689991000
        1.8812885000         0.3164240000
        0.5442493000         0.7443083000
 s    1  1.00
        0.1687144000         1.0000000000
 p    1  1.00
        0.1687144000         1.0000000000
 d    1  1.00
        0.8000000000         1.0000000000

  7 0
 s    6  1.00
     3047.5249000000         0.0018347000
      457.3695100000         0.0140373000
      103.9486900000         0.0688426000
       29.2101550000         0.2321844000
        9.2866630000         0.4679413000
        3.1639270000         0.3623120000
 s    3  1.00
        7.8682724000        -0.1193324000
        1.8812885000        -0.1608542000
        0.5442493000         1.1434564000
 p    3  1.00
        7.8682724000         0.0689991000
        1.8812885000         0.3164240000
        0.5442493000         0.7443083000
 s    1  1.00
        0.1687144000         1.0000000000
 p    1  1.00
        0.1687144000         1.0000000000
 d    1  1.00
        0.8000000000         1.0000000000

  8 0
 s    6  1.00
     3047.5249000000         0.0018347000
      457.3695100000         0.0140373000
      103.9486900000         0.0688426000
       29.2101550000         0.2321844000
        9.2866630000         0.4679413000
        3.1639270000         0.3623120000
 s    3  1.00
        7.8682724000        -0.1193324000
        1.8812885000        -0.1608542000
        0.5442493000         1.1434564000
 p    3  1.00
        7.8682724000         0.0689991000
        1.8812885000         0.3164240000
        0.5442493000         0.7443083000
 s    1  1.00
        0.1687144000         1.0000000000
 p    1  1.00
        0.1687144000         1.0000000000
 d    1  1.00
        0.8000000000         1.0000000000

  9 0
 s    6  1.00
     3047.5249000000         0.0018347000
      457.3695100000         0.0140373000
      103.9486900000         0.0688426000
       29.2101550000         0.2321844000
        9.2866630000         0.4679413000
        3.1639270000         0.3623120000
 s    3  1.00
        7.8682724000        -0.1193324000
        1.8812885000        -0.1608542000
        0.5442493000         1.1434564000
 p    3  1.00
        7.8682724000         0.0689991000
        1.8812885000         0.3164240000
        0.5442493000         0.7443083000
 s    1  1.00
        0.1687144000         1.0000000000
 p    1  1.00
        0.1687144000         1.0000000000
 d    1  1.00
        0.8000000000         1.0000000000

  10 0
 s    6  1.00
     3047.5249000000         0.0018347000
      457.3695100000         0.0140373000
      103.9486900000         0.0688426000
       29.2101550000         0.2321844000
        9.2866630000         0.4679413000
        3.1639270000         0.3623120000
 s    3  1.00
        7.8682724000        -0.1193324000
        1.8812885000        -0.1608542000
        0.5442493000         1.1434564000
 p    3  1.00
        7.8682724000         0.0689991000
        1.8812885000         0.3164240000
        0.5442493000         0.7443083000
 s    1  1.00
        0.1687144000         1.0000000000
 p    1  1.00
        0.1687144000         1.0000000000
 d    1  1.00
        0.8000000000         1.0000000000

  11 0
 s    6  1.00
     3047.5249000000         0.0018347000
      457.3695100000         0.0140373000
      103.9486900000         0.0688426000
       29.2101550000         0.2321844000
        9.2866630000         0.4679413000
        3.1639270000         0.3623120000
 s    3  1.00
        7.8682724000        -0.1193324000
        1.8812885000        -0.1608542000
        0.5442493000         1.1434564000
 p    3  1.00
        7.8682724000         0.0689991000
        1.8812885000         0.3164240000
        0.5442493000         0.7443083000
 s    1  1.00
        0.1687144000         1.0000000000
 p    1  1.00
        0.1687144000         1.0000000000
 d    1  1.00
        0.8000000000         1.0000000000

  12 0
 s    6  1.00
     3047.5249000000         0.0018347000
      457.3695100000         0.0140373000
      103.9486900000         0.0688426000
       29.2101550000         0.2321844000
        9.2866630000         0.4679413000
        3.1639270000         0.3623120000
 s    3  1.00
        7.8682724000        -0.1193324000
        1.8812885000        -0.1608542000
        0.5442493000         1.1434564000
 p    3  1.00
        7.8682724000         0.0689991000
        1.8812885000         0.3164240000
        0.5442493000         0.7443083000
 s    1  1.00
        0.1687144000         1.0000000000
 p    1  1.00
        0.1687144000         1.0000000000
 d    1  1.00
        0.8000000000         1.0000000000

  13 0
 s    6  1.00
     3047.5249000000         0.0018347000
      457.3695100000         0.0140373000
      103.9486900000         0.0688426000
       29.2101550000         0.2321844000
        9.2866630000         0.4679413000
        3.1639270000         0.3623120000
 s    3  1.00
        7.8682724000        -0.1193324000
        1.8812885000        -0.1608542000
        0.5442493000         1.1434564000
 p    3  1.00
        7.8682724000         0.0689991000
        1.8812885000         0.3164240000
        0.5442493000         0.7443083000
 s    1  1.00
        0.1687144000         1.0000000000
 p    1  1.00
        0.1687144000         1.0000000000
 d    1  1.00
        0.8000000000         1.0000000000

  14 0
 s    6  1.00
     3047.5249000000         0.0018347000
      457.3695100000         0.0140373000
      103.9486900000         0.0688426000
       29.2101550000         0.2321844000
        9.2866630000         0.4679413000
        3.1639270000         0.3623120000
 s    3  1.00
        7.8682724000        -0.1193324000
        1.8812885000        -0.1608542000
        0.5442493000         1.1434564000
 p    3  1.00
        7.8682724000         0.0689991000
        1.8812885000         0.3164240000
        0.5442493000         0.7443083000
 s    1  1.00
        0.1687144000         1.0000000000
 p    1  1.00
        0.1687144000         1.0000000000
 d    1  1.00
        0.8000000000         1.0000000000

  15 0
 s    6  1.00
     3047.5249000000         0.0018347000
      457.3695100000         0.0140373000
      103.9486900000         0.0688426000
       29.2101550000         0.2321844000
        9.2866630000         0.4679413000
        3.1639270000         0.3623120000
 s    3  1.00
        7.8682724000        -0.1193324000
        1.8812885000        -0.1608542000
        0.5442493000         1.1434564000
 p    3  1.00
        7.8682724000         0.0689991000
        1.8812885000         0.3164240000
        0.5442493000         0.7443083000
 s    1  1.00
        0.1687144000         1.0000000000
 p    1  1.00
        0.1687144000         1.0000000000
 d    1  1.00
        0.8000000000         1.0000000000

  16 0
 s    6  1.00
     3047.5249000000         0.0018347000
      457.3695100000         0.0140373000
      103.9486900000         0.0688426000
       29.2101550000         0.2321844000
        9.2866630000         0.4679413000
        3.1639270000         0.3623120000
 s    3  1.00
        7.8682724000        -0.1193324000
        1.8812885000        -0.1608542000
        0.5442493000         1.1434564000
 p    3  1.00
        7.8682724000         0.0689991000
        1.8812885000         0.3164240000
        0.5442493000         0.7443083000
 s    1  1.00
        0.1687144000         1.0000000000
 p    1  1.00
        0.1687144000         1.0000000000
 d    1  1.00
        0.8000000000         1.0000000000

  17 0
 s    6  1.00
     3047.5249000000         0.0018347000
      457.3695100000         0.0140373000
      103.9486900000         0.0688426000
       29.2101550000         0.2321844000
        9.2866630000         0.4679413000
        3.1639270000         0.3623120000
 s    3  1.00
        7.8682724000        -0.1193324000
        1.8812885000        -0.1608542000
        0.5442493000         1.1434564000
 p    3  1.00
        7.8682724000         0.0689991000
        1.8812885000         0.3164240000
        0.5442493000         0.7443083000
 s    1  1.00
        0.1687144000         1.0000000000
 p    1  1.00
        0.1687144000         1.0000000000
 d    1  1.00
        0.8000000000         1.0000000000

  18 0
 s    6  1.00
     3047.5249000000         0.0018347000
      457.3695100000         0.0140373000
      103.9486900000         0.0688426000
       29.2101550000         0.2321844000
        9.2866630000         0.4679413000
        3.1639270000         0.3623120000
 s    3  1.00
        7.8682724000        -0.1193324000
        1.8812885000        -0.1608542000
        0.5442493000         1.1434564000
 p    3  1.00
        7.8682724000         0.0689991000
        1.8812885000         0.3164240000
        0.5442493000         0.7443083000
 s    1  1.00
        0.1687144000         1.0000000000
 p    1  1.00
        0.1687144000         1.0000000000
 d    1  1.00
        0.8000000000         1.0000000000

  19 0
 s    6  1.00
     3047.5249000000         0.0018347000
      457.3695100000         0.0140373000
      103.9486900000         0.0688426000
       29.2101550000         0.2321844000
        9.2866630000         0.4679413000
        3.1639270000         0.3623120000
 s    3  1.00
        7.8682724000        -0.1193324000
        1.8812885000        -0.1608542000
        0.5442493000         1.1434564000
 p    3  1.00
        7.8682724000         0.0689991000
        1.8812885000         0.3164240000
        0.5442493000         0.7443083000
 s    1  1.00
        0.1687144000         1.0000000000
 p    1  1.00
        0.1687144000         1.0000000000
 d    1  1.00
        0.8000000000         1.0000000000

  20 0
 s    6  1.00
     3047.5249000000         0.0018347000
      457.3695100000         0.0140373000
      103.9486900000         0.0688426000
       29.2101550000         0.2321844000
        9.2866630000         0.4679413000
        3.1639270000         0.3623120000
 s    3  1.00
        7.8682724000        -0.1193324000
        1.8812885000        -0.1608542000
        0.5442493000         1.1434564000
 p    3  1.00
        7.8682724000         0.0689991000
        1.8812885000         0.3164240000
        0.5442493000         0.7443083000
 s    1  1.00
        0.1687144000         1.0000000000
 p    1  1.00
        0.1687144000         1.0000000000
 d    1  1.00
        0.8000000000         1.0000000000

  21 0
 s    6  1.00
     3047.5249000000         0.0018347000
      457.3695100000         0.0140373000
      103.9486900000         0.0688426000
       29.2101550000         0.2321844000
        9.2866630000         0.4679413000
        3.1639270000         0.3623120000
 s    3  1.00
        7.8682724000        -0.1193324000
        1.8812885000        -0.1608542000
        0.5442493000         1.1434564000
 p    3  1.00
        7.8682724000         0.0689991000
        1.8812885000         0.3164240000
        0.5442493000         0.7443083000
 s    1  1.00
        0.1687144000         1.0000000000
 p    1  1.00
        0.1687144000         1.0000000000
 d    1  1.00
        0.8000000000         1.0000000000

  22 0
 s    3  1.00
       18.7311370000         0.0334946000
        2.8253937000         0.2347269500
        0.6401217000         0.8137573300
 s    1  1.00
        0.1612778000         1.0000000000

  23 0
 s    3  1.00
       18.7311370000         0.0334946000
        2.8253937000         0.2347269500
        0.6401217000         0.8137573300
 s    1  1.00
        0.1612778000         1.0000000000

  24 0
 s    3  1.00
       18.7311370000         0.0334946000
        2.8253937000         0.2347269500
        0.6401217000         0.8137573300
 s    1  1.00
        0.1612778000         1.0000000000

  25 0
 s    3  1.00
       18.7311370000         0.0334946000
        2.8253937000         0.2347269500
        0.6401217000         0.8137573300
 s    1  1.00
        0.1612778000         1.0000000000

  26 0
 s    3  1.00
       18.7311370000         0.0334946000
        2.8253937000         0.2347269500
        0.6401217000         0.8137573300
 s    1  1.00
        0.1612778000         1.0000000000

  27 0
 s    3  1.00
       18.7311370000         0.0334946000
        2.8253937000         0.2347269500
        0.6401217000         0.8137573300
 s    1  1.00
        0.1612778000         1.0000000000

  28 0
 s    3  1.00
       18.7311370000         0.0334946000
        2.8253937000         0.2347269500
        0.6401217000         0.8137573300
 s    1  1.00
        0.1612778000         1.0000000000

  29 0
 s    3  1.00
       18.7311370000         0.0334946000
        2.8253937000         0.2347269500
        0.6401217000         0.8137573300
 s    1  1.00
        0.1612778000         1.0000000000

  30 0
 s    3  1.00
       18.7311370000         0.0334946000
        2.8253937000         0.2347269500
        0.6401217000         0.8137573300
 s    1  1.00
        0.1612778000         1.0000000000

  31 0
 s    3  1.00
       18.7311370000         0.0334946000
        2.8253937000         0.2347269500
        0.6401217000         0.8137573300
 s    1  1.00
        0.1612778000         1.0000000000

  32 0
 s    3  1.00
       18.7311370000         0.0334946000
        2.8253937000         0.2347269500
        0.6401217000         0.8137573300
 s    1  1.00
        0.1612778000         1.0000000000

[MO]
 Sym= A
 Ene=        -1.0484019973e+02
 Spin= Alpha
 Occup=         2.0000000000e+00
  1         9.9611662965e-01
  2         1.4645113299e-02
  3         1.1385937272e-05
  4        -5.9103268091e-05
  5        -2.8913604958e-07
  6        -1.7739600959e-02
  7        -1.1457346291e-05
  8         6.0330090949e-05
  9         2.8854138606e-07
 10         1.4192888867e-03
 11         5.9201744660e-06
 12        -3.7608995316e-05
 13        -1.7020650182e-07
 14         6.2658410922e-03
 15         6.2676978015e-03
 16         6.2609042301e-03
 17        -9.2800138874e-08
 18        -3.0788519891e-08
 19         3.1577000893e-08
 20         3.8099699953e-07
 21         3.0009578827e-06
 22         1.3015674879e-06
 23        -9.5738813516e-07
 24        -7.9710581106e-09
 25        -1.8547757166e-05
 26        -1.1724605496e-05
 27         9.4028916062e-07
 28         7.2125103239e-08
 29        -4.3408393109e-07
 30         9.2995377331e-07
 31         6.8486112559e-07
 32        -1.3489567585e-06
 33         3.8974060873e-09
 34         1.4977119057e-09
 35        -4.3381354021e-07
 36        -1.9798548182e-06
 37        -4.8527240556e-08
 38        -3.9380552485e-07
 39        -2.1307567371e-08
 40         1.1348990248e-05
 41        -1.7679165717e-06
 42         4.3357788937e-06
 43         1.3388425959e-07
 44        -1.6417892088e-06
 45        -5.3075837710e-07
 46        -1.4372929808e-06
 47        -2.3630844755e-07
 48        -2.0441627710e-08
 49         3.9901867746e-08
 50         2.4811827209e-07
 51         4.8225276546e-08
 52         1.0157469301e-06
 53         1.2811990900e-06
 54         2.3815682067e-08
 55        -5.8845715139e-06
 56        -1.2071723036e-05
 57        -8.1506153404e-06
 58        -1.7295515341e-07
 59         1.1396334426e-06
 60         1.1605888237e-06
 61         4.3725763616e-07
 62         2.6132397453e-07
 63        -1.2629423481e-08
 64        -5.7851692558e-09
 65        -1.5319404865e-07
 66        -5.6963872103e-07
 67        -1.6170906641e-08
 68         6.6889604192e-08
 69         3.8651131679e-09
 70         5.9239637696e-06
 71         3.3665699698e-06
 72        -2.3808256380e-06
 73         2.0459825801e-08
 74         1.0905521652e-08
 75        -4.7128563831e-07
 76        -3.8702969312e-07
 77        -1.3536772055e-07
 78         4.0162939927e-09
 79        -3.0673252729e-09
 80        -2.5272827048e-07
 81        -4.6863985109e-06
 82        -2.4214369219e-06
 83        -3.5688811744e-07
 84         9.5023310967e-09
 85         1.0413476266e-04
 86         1.1741430879e-04
 87         1.6211098131e-04
 88        -1.4091503159e-07
 89         5.1902972112e-06
 90         1.8959038530e-06
 91        -2.4704144648e-08
 92         5.1120961195e-06
 93        -1.8782403902e-08
 94        -2.1138121233e-08
 95         1.1918764593e-06
 96         1.0754513959e-05
 97        -6.9868366928e-06
 98        -5.1736397051e-06
 99         1.9657696216e-08
100        -2.4975182466e-04
101         1.8095140656e-04
102         3.5670561593e-05
103        -8.5984803443e-07
104        -2.2724458608e-06
105        -9.7624076224e-07
106         9.8369727428e-08
107        -1.0542255232e-05
108        -1.5393315705e-08
109         5.9629575665e-08
110        -3.7227454924e-07
111        -3.5037252968e-06
112        -2.1100941598e-06
113         8.9474770887e-07
114         3.7851856390e-08
115         8.7592470878e-06
116         9.1387763397e-05
117        -3.3491376120e-05
118        -7.7141868336e-07
119         1.3315974262e-06
120         1.2709350144e-06
121        -7.3149837217e-07
122         5.6059267536e-07
123        -6.9847811866e-09
124         3.4446040531e-09
125        -3.7176298776e-07
126        -2.3726052895e-06
127         5.8028773324e-07
128         1.4129875877e-06
129         6.2704486632e-11
130         1.1677231879e-04
131        -5.5489159252e-05
132         4.6080660605e-05
133         4.5956522359e-07
134         5.3768480440e-07
135         2.6097242023e-08
136        -5.5456343458e-07
137        -8.8743982467e-07
138        -1.0363744414e-08
139         6.8183800037e-09
140         2.1421466797e-07
141         1.1879818461e-06
142        -5.0536118395e-07
143        -1.4705397980e-06
144        -1.4087157137e-09
145        -9.0402342888e-05
146        -1.9424138878e-05
147        -3.8160089934e-05
148         4.2352900553e-08
149        -1.8463561335e-07
150        -4.9217330117e-08
151         4.0524667787e-08
152         4.7289472419e-07
153         1.7948598660e-09
154         4.7976793489e-09
155        -1.6940280356e-06
156         7.2934827636e-06
157         5.4774254871e-07
158        -4.7963951763e-06
159        -1.4714877799e-08
160         1.4101234211e-04
161         2.1903265961e-05
162        -1.2821013868e-04
163        -6.1130542481e-07
164         4.8321587639e-06
165        -2.9486492503e-05
166        -8.7593800878e-06
167        -1.0555459316e-05
168        -1.2936134702e-07
169        -3.3279446080e-08
170         8.0607471641e-08
171         3.8943583039e-06
172         2.4618308140e-06
173        -2.5518879869e-06
174        -1.9034044823e-08
175        -6.7558582734e-05
176         1.0795959581e-05
177        -3.3791904871e-05
178        -1.7286489163e-07
179        -2.7727321574e-06
180        -3.4978052636e-06
181         1.4794026194e-08
182         1.1769031016e-06
183         2.0244343699e-08
184        -1.8813561675e-08
185        -6.7982764791e-07
186        -3.5913369424e-06
187         8.7707038247e-07
188        -2.9535229291e-07
189        -1.8422836182e-08
190         6.4360043391e-05
191         4.7101407883e-05
192        -4.0805377549e-06
193        -1.3255178267e-07
194         4.1544442454e-07
195        -6.6940937370e-07
196        -1.1811008526e-06
197         3.8219704376e-07
198        -2.6339639500e-08
199         2.4453423561e-08
200        -1.9055710972e-07
201        -6.1687440579e-07
202        -2.7775493569e-07
203         4.7578428764e-07
204        -2.1719238541e-08
205        -8.8330097236e-07
206         3.0482387229e-07
207         8.0794765486e-06
208         1.2028926064e-07
209        -1.7925853378e-07
210        -5.4620489015e-07
211        -4.2718155764e-07
212         4.1820680754e-07
213         3.7314731123e-09
214         4.8324097294e-09
215         7.7612605079e-06
216         9.6026348219e-05
217        -5.6508950788e-06
218         2.6241970873e-05
219         1.2792478477e-07
220        -1.1155728861e-04
221        -3.2896288679e-05
222         1.7879450172e-04
223         8.7700497911e-07
224         3.1043255959e-05
225        -5.0346122624e-05
226        -2.3240269300e-06
227         1.8629953019e-05
228        -1.3361397118e-07
229        -3.0601266327e-07
230        -1.9240619822e-07
231         1.3394839437e-06
232         3.3331022644e-06
233        -5.1380523701e-06
234        -3.5632376773e-08
235        -9.6702193597e-05
236        -8.0068723797e-06
237        -4.4589413951e-05
238        -9.3955406369e-08
239        -3.3970231668e-06
240         4.0988626362e-06
241        -2.4439874308e-06
242         3.4888212799e-06
243         1.6533152146e-08
244         1.2100089809e-08
245        -1.4923840961e-06
246         8.0598187799e-06
247         4.4367794548e-07
248        -3.0015493003e-06
249        -1.0202375034e-08
250         1.2420515716e-04
251        -9.2856581304e-06
252        -1.4221241344e-04
253        -5.0584815856e-07
254        -7.2376054608e-06
255        -1.7090359823e-05
256        -8.5347280065e-06
257         2.4286859731e-05
258         8.9343186733e-08
259        -1.6041711543e-07
260        -3.7002491731e-08
261        -1.7031622196e-07
262         9.8883983587e-08
263        -2.0974768768e-07
264         5.1013363661e-09
265        -9.4356717442e-07
266        -3.1435621364e-06
267         5.3450516527e-06
268        -3.3772779240e-08
269         1.4831521704e-07
270        -9.0168210250e-08
271        -9.9952446884e-08
272        -5.2457769154e-08
273         5.7732934568e-09
274         3.4579195796e-09
275        -1.4911719591e-07
276        -4.9045022457e-07
277        -2.5839022301e-07
278         2.6933614227e-07
279        -1.3668622318e-08
280         1.7019683562e-06
281         9.0538291664e-06
282        -3.2323746981e-06
283         1.3963950739e-07
284        -4.2851530293e-07
285        -1.6409541305e-07
286        -3.4389832076e-07
287         1.7313163006e-07
288        -1.5744350954e-09
289         1.4436241230e-09
290         3.9414592378e-08
291         2.3842328867e-07
292        -1.6394935917e-08
293         4.3061170573e-08
294         8.8680825013e-11
295        -3.0624536808e-06
296        -3.4053282039e-06
297         2.8991358206e-09
298        -4.6825957938e-08
299        -1.1570221804e-07
300         2.6160194094e-08
301         9.9970606771e-08
302         6.5694154235e-08
303        -1.8195267327e-09
304        -1.5848319199e-10
305        -2.1643637653e-08
306        -1.2171523891e-07
307        -5.8589105339e-08
308         3.9941545429e-08
309         8.4355059835e-10
310         3.1873664096e-07
311        -7.5949283268e-08
312        -2.3387783288e-06
313        -2.3135616195e-08
314        -2.8243177376e-08
315         1.2676507925e-07
316        -8.4597664368e-08
317        -6.0334569816e-09
318         3.2781686096e-10
319         5.6167029120e-10
320         2.2180978418e-06
321         2.1263558581e-05
322        -7.3653882666e-07
323        -7.8350616797e-06
324         9.5897412957e-06
325        -3.6325909944e-05
326        -2.7080674068e-07