
Host: ac38d33c30c5

Timers On : Thu Apr 16 20:19:01 2026
Timers Off: Thu Apr 16 20:19:08 2026

Wall Time:        6.87 seconds

                                                       Time (seconds)
Module                                       User      System        Wall        Calls

--------------------------------------------------------------------------------------

**************************************************************************************
