[Molden Format]
[Atoms] (AU)
CL   1   17           6.1911994011         6.4561910102         0.0141436128
O    2    8           0.9432409781        -1.8213763372         0.0143325854
O    3    8          -4.9338072721        -4.9792976654        -0.0036198127
N    4    7          -4.0114319503        -0.6336834673         0.0479697105
N    5    7         -10.9491834747        -0.1977236502        -0.0593667334
C    6    6           3.2899028807        -2.8505211851        -0.0026749497
C    7    6           5.3415785351        -1.0558482838        -0.0083441281
C    8    6          -0.7085686282        -3.7870694529         0.0184899829
C    9    6           3.1704721895        -5.4377452235        -0.0100448816
C   10    6           0.5673744517        -6.0519062142         0.0039390918
C   11    6           4.8321083717         1.5302419189         0.0031832013
C   12    6           7.8363949659        -1.9077368211        -0.0242178275
C   13    6          -3.3375556139        -3.2212854509         0.0362534085
C   14    6          -6.4333049526         0.4232403546         0.0196238186
C   15    6           6.8174546391         3.2648215295        -0.0013521414
C   16    6           9.8211743155        -0.1737241284        -0.0289421428
C   17    6           9.3118931247         2.4123660743        -0.0172258408
C   18    6          -6.7641959972         3.0240704211         0.0368203263
C   19    6          -8.5579240355        -1.0964773955        -0.0281862524
C   20    6          -9.1953286576         4.0205230071         0.0060177905
C   21    6         -11.2061862277         2.3439579886        -0.0416033079
H   22    1           4.7349764488        -6.7505379628        -0.0232729644
H   23    1          -0.2633491530        -7.9178217905         0.0035611465
H   24    1           2.9032649154         2.2415348326         0.0160333390
H   25    1           8.2946535513        -3.9099016510        -0.0334774855
H   26    1          -2.5620120120         0.6312992010         0.0736699858
H   27    1          11.7636237998        -0.8366400532        -0.0414143353
H   28    1          10.8779091648         3.7417884036        -0.0206273479
H   29    1          -5.1520706396         4.2951002131         0.0736699858
H   30    1          -8.5450738978        -3.1353029122        -0.0461386506
H   31    1          -9.5065665505         6.0449866053         0.0183010103
H   32    1         -13.1399429719         3.0255822020        -0.0671146106
[GTO]
  1 0
 s    6  1.00
    25180.1000000000         0.0018330000
     3780.3500000000         0.0140340000
      860.4740000000         0.0690970000
      242.1450000000         0.2374520000
       77.3349000000         0.4830340000
       26.2470000000         0.3398560000
 s    6  1.00
      491.7650000000        -0.0022974000
      116.9840000000        -0.0307140000
       37.4153000000        -0.1125280000
       13.7834000000         0.0450160000
        5.4521500000         0.5893530000
        2.2258800000         0.4652060000
 p    6  1.00
      491.7650000000         0.0039894000
      116.9840000000         0.0303180000
       37.4153000000         0.1298800000
       13.7834000000         0.3279510000
        5.4521500000         0.4535270000
        2.2258800000         0.2521540000
 s    3  1.00
        3.1864900000        -0.2518300000
        1.1442700000         0.0615890000
        0.4203770000         1.0601800000
 p    3  1.00
        3.1864900000        -0.0142990000
        1.1442700000         0.3235720000
        0.4203770000         0.7435070000
 s    1  1.00
        0.1426570000         1.0000000000
 p    1  1.00
        0.1426570000         1.0000000000
 d    1  1.00
        0.7500000000         1.0000000000

  2 0
 s    6  1.00
     5484.6717000000         0.0018311000
      825.2349500000         0.0139501000
      188.0469600000         0.0684451000
       52.9645000000         0.2327143000
       16.8975700000         0.4701930000
        5.7996353000         0.3585209000
 s    3  1.00
       15.5396160000        -0.1107775000
        3.5999336000        -0.1480263000
        1.0137618000         1.1307670000
 p    3  1.00
       15.5396160000         0.0708743000
        3.5999336000         0.3397528000
        1.0137618000         0.7271586000
 s    1  1.00
        0.2700058000         1.0000000000
 p    1  1.00
        0.2700058000         1.0000000000
 d    1  1.00
        0.8000000000         1.0000000000

  3 0
 s    6  1.00
     5484.6717000000         0.0018311000
      825.2349500000         0.0139501000
      188.0469600000         0.0684451000
       52.9645000000         0.2327143000
       16.8975700000         0.4701930000
        5.7996353000         0.3585209000
 s    3  1.00
       15.5396160000        -0.1107775000
        3.5999336000        -0.1480263000
        1.0137618000         1.1307670000
 p    3  1.00
       15.5396160000         0.0708743000
        3.5999336000         0.3397528000
        1.0137618000         0.7271586000
 s    1  1.00
        0.2700058000         1.0000000000
 p    1  1.00
        0.2700058000         1.0000000000
 d    1  1.00
        0.8000000000         1.0000000000

  4 0
 s    6  1.00
     4173.5110000000         0.0018348000
      627.4579000000         0.0139950000
      142.9021000000         0.0685870000
       40.2343300000         0.2322410000
       12.8202100000         0.4690700000
        4.3904370000         0.3604550000
 s    3  1.00
       11.6263580000        -0.1149610000
        2.7162800000        -0.1691180000
        0.7722180000         1.1458520000
 p    3  1.00
       11.6263580000         0.0675800000
        2.7162800000         0.3239070000
        0.7722180000         0.7408950000
 s    1  1.00
        0.2120313000         1.0000000000
 p    1  1.00
        0.2120313000         1.0000000000
 d    1  1.00
        0.8000000000         1.0000000000

  5 0
 s    6  1.00
     4173.5110000000         0.0018348000
      627.4579000000         0.0139950000
      142.9021000000         0.0685870000
       40.2343300000         0.2322410000
       12.8202100000         0.4690700000
        4.3904370000         0.3604550000
 s    3  1.00
       11.6263580000        -0.1149610000
        2.7162800000        -0.1691180000
        0.7722180000         1.1458520000
 p    3  1.00
       11.6263580000         0.0675800000
        2.7162800000         0.3239070000
        0.7722180000         0.7408950000
 s    1  1.00
        0.2120313000         1.0000000000
 p    1  1.00
        0.2120313000         1.0000000000
 d    1  1.00
        0.8000000000         1.0000000000

  6 0
 s    6  1.00
     3047.5249000000         0.0018347000
      457.3695100000         0.0140373000
      103.9486900000         0.0688426000
       29.2101550000         0.2321844000
        9.2866630000         0.4679413000
        3.1639270000         0.3623120000
 s    3  1.00
        7.8682724000        -0.1193324000
        1.8812885000        -0.1608542000
        0.5442493000         1.1434564000
 p    3  1.00
        7.8682724000         0.0689991000
        1.8812885000         0.3164240000
        0.5442493000         0.7443083000
 s    1  1.00
        0.1687144000         1.0000000000
 p    1  1.00
        0.1687144000         1.0000000000
 d    1  1.00
        0.8000000000         1.0000000000

  7 0
 s    6  1.00
     3047.5249000000         0.0018347000
      457.3695100000         0.0140373000
      103.9486900000         0.0688426000
       29.2101550000         0.2321844000
        9.2866630000         0.4679413000
        3.1639270000         0.3623120000
 s    3  1.00
        7.8682724000        -0.1193324000
        1.8812885000        -0.1608542000
        0.5442493000         1.1434564000
 p    3  1.00
        7.8682724000         0.0689991000
        1.8812885000         0.3164240000
        0.5442493000         0.7443083000
 s    1  1.00
        0.1687144000         1.0000000000
 p    1  1.00
        0.1687144000         1.0000000000
 d    1  1.00
        0.8000000000         1.0000000000

  8 0
 s    6  1.00
     3047.5249000000         0.0018347000
      457.3695100000         0.0140373000
      103.9486900000         0.0688426000
       29.2101550000         0.2321844000
        9.2866630000         0.4679413000
        3.1639270000         0.3623120000
 s    3  1.00
        7.8682724000        -0.1193324000
        1.8812885000        -0.1608542000
        0.5442493000         1.1434564000
 p    3  1.00
        7.8682724000         0.0689991000
        1.8812885000         0.3164240000
        0.5442493000         0.7443083000
 s    1  1.00
        0.1687144000         1.0000000000
 p    1  1.00
        0.1687144000         1.0000000000
 d    1  1.00
        0.8000000000         1.0000000000

  9 0
 s    6  1.00
     3047.5249000000         0.0018347000
      457.3695100000         0.0140373000
      103.9486900000         0.0688426000
       29.2101550000         0.2321844000
        9.2866630000         0.4679413000
        3.1639270000         0.3623120000
 s    3  1.00
        7.8682724000        -0.1193324000
        1.8812885000        -0.1608542000
        0.5442493000         1.1434564000
 p    3  1.00
        7.8682724000         0.0689991000
        1.8812885000         0.3164240000
        0.5442493000         0.7443083000
 s    1  1.00
        0.1687144000         1.0000000000
 p    1  1.00
        0.1687144000         1.0000000000
 d    1  1.00
        0.8000000000         1.0000000000

  10 0
 s    6  1.00
     3047.5249000000         0.0018347000
      457.3695100000         0.0140373000
      103.9486900000         0.0688426000
       29.2101550000         0.2321844000
        9.2866630000         0.4679413000
        3.1639270000         0.3623120000
 s    3  1.00
        7.8682724000        -0.1193324000
        1.8812885000        -0.1608542000
        0.5442493000         1.1434564000
 p    3  1.00
        7.8682724000         0.0689991000
        1.8812885000         0.3164240000
        0.5442493000         0.7443083000
 s    1  1.00
        0.1687144000         1.0000000000
 p    1  1.00
        0.1687144000         1.0000000000
 d    1  1.00
        0.8000000000         1.0000000000

  11 0
 s    6  1.00
     3047.5249000000         0.0018347000
      457.3695100000         0.0140373000
      103.9486900000         0.0688426000
       29.2101550000         0.2321844000
        9.2866630000         0.4679413000
        3.1639270000         0.3623120000
 s    3  1.00
        7.8682724000        -0.1193324000
        1.8812885000        -0.1608542000
        0.5442493000         1.1434564000
 p    3  1.00
        7.8682724000         0.0689991000
        1.8812885000         0.3164240000
        0.5442493000         0.7443083000
 s    1  1.00
        0.1687144000         1.0000000000
 p    1  1.00
        0.1687144000         1.0000000000
 d    1  1.00
        0.8000000000         1.0000000000

  12 0
 s    6  1.00
     3047.5249000000         0.0018347000
      457.3695100000         0.0140373000
      103.9486900000         0.0688426000
       29.2101550000         0.2321844000
        9.2866630000         0.4679413000
        3.1639270000         0.3623120000
 s    3  1.00
        7.8682724000        -0.1193324000
        1.8812885000        -0.1608542000
        0.5442493000         1.1434564000
 p    3  1.00
        7.8682724000         0.0689991000
        1.8812885000         0.3164240000
        0.5442493000         0.7443083000
 s    1  1.00
        0.1687144000         1.0000000000
 p    1  1.00
        0.1687144000         1.0000000000
 d    1  1.00
        0.8000000000         1.0000000000

  13 0
 s    6  1.00
     3047.5249000000         0.0018347000
      457.3695100000         0.0140373000
      103.9486900000         0.0688426000
       29.2101550000         0.2321844000
        9.2866630000         0.4679413000
        3.1639270000         0.3623120000
 s    3  1.00
        7.8682724000        -0.1193324000
        1.8812885000        -0.1608542000
        0.5442493000         1.1434564000
 p    3  1.00
        7.8682724000         0.0689991000
        1.8812885000         0.3164240000
        0.5442493000         0.7443083000
 s    1  1.00
        0.1687144000         1.0000000000
 p    1  1.00
        0.1687144000         1.0000000000
 d    1  1.00
        0.8000000000         1.0000000000

  14 0
 s    6  1.00
     3047.5249000000         0.0018347000
      457.3695100000         0.0140373000
      103.9486900000         0.0688426000
       29.2101550000         0.2321844000
        9.2866630000         0.4679413000
        3.1639270000         0.3623120000
 s    3  1.00
        7.8682724000        -0.1193324000
        1.8812885000        -0.1608542000
        0.5442493000         1.1434564000
 p    3  1.00
        7.8682724000         0.0689991000
        1.8812885000         0.3164240000
        0.5442493000         0.7443083000
 s    1  1.00
        0.1687144000         1.0000000000
 p    1  1.00
        0.1687144000         1.0000000000
 d    1  1.00
        0.8000000000         1.0000000000

  15 0
 s    6  1.00
     3047.5249000000         0.0018347000
      457.3695100000         0.0140373000
      103.9486900000         0.0688426000
       29.2101550000         0.2321844000
        9.2866630000         0.4679413000
        3.1639270000         0.3623120000
 s    3  1.00
        7.8682724000        -0.1193324000
        1.8812885000        -0.1608542000
        0.5442493000         1.1434564000
 p    3  1.00
        7.8682724000         0.0689991000
        1.8812885000         0.3164240000
        0.5442493000         0.7443083000
 s    1  1.00
        0.1687144000         1.0000000000
 p    1  1.00
        0.1687144000         1.0000000000
 d    1  1.00
        0.8000000000         1.0000000000

  16 0
 s    6  1.00
     3047.5249000000         0.0018347000
      457.3695100000         0.0140373000
      103.9486900000         0.0688426000
       29.2101550000         0.2321844000
        9.2866630000         0.4679413000
        3.1639270000         0.3623120000
 s    3  1.00
        7.8682724000        -0.1193324000
        1.8812885000        -0.1608542000
        0.5442493000         1.1434564000
 p    3  1.00
        7.8682724000         0.0689991000
        1.8812885000         0.3164240000
        0.5442493000         0.7443083000
 s    1  1.00
        0.1687144000         1.0000000000
 p    1  1.00
        0.1687144000         1.0000000000
 d    1  1.00
        0.8000000000         1.0000000000

  17 0
 s    6  1.00
     3047.5249000000         0.0018347000
      457.3695100000         0.0140373000
      103.9486900000         0.0688426000
       29.2101550000         0.2321844000
        9.2866630000         0.4679413000
        3.1639270000         0.3623120000
 s    3  1.00
        7.8682724000        -0.1193324000
        1.8812885000        -0.1608542000
        0.5442493000         1.1434564000
 p    3  1.00
        7.8682724000         0.0689991000
        1.8812885000         0.3164240000
        0.5442493000         0.7443083000
 s    1  1.00
        0.1687144000         1.0000000000
 p    1  1.00
        0.1687144000         1.0000000000
 d    1  1.00
        0.8000000000         1.0000000000

  18 0
 s    6  1.00
     3047.5249000000         0.0018347000
      457.3695100000         0.0140373000
      103.9486900000         0.0688426000
       29.2101550000         0.2321844000
        9.2866630000         0.4679413000
        3.1639270000         0.3623120000
 s    3  1.00
        7.8682724000        -0.1193324000
        1.8812885000        -0.1608542000
        0.5442493000         1.1434564000
 p    3  1.00
        7.8682724000         0.0689991000
        1.8812885000         0.3164240000
        0.5442493000         0.7443083000
 s    1  1.00
        0.1687144000         1.0000000000
 p    1  1.00
        0.1687144000         1.0000000000
 d    1  1.00
        0.8000000000         1.0000000000

  19 0
 s    6  1.00
     3047.5249000000         0.0018347000
      457.3695100000         0.0140373000
      103.9486900000         0.0688426000
       29.2101550000         0.2321844000
        9.2866630000         0.4679413000
        3.1639270000         0.3623120000
 s    3  1.00
        7.8682724000        -0.1193324000
        1.8812885000        -0.1608542000
        0.5442493000         1.1434564000
 p    3  1.00
        7.8682724000         0.0689991000
        1.8812885000         0.3164240000
        0.5442493000         0.7443083000
 s    1  1.00
        0.1687144000         1.0000000000
 p    1  1.00
        0.1687144000         1.0000000000
 d    1  1.00
        0.8000000000         1.0000000000

  20 0
 s    6  1.00
     3047.5249000000         0.0018347000
      457.3695100000         0.0140373000
      103.9486900000         0.0688426000
       29.2101550000         0.2321844000
        9.2866630000         0.4679413000
        3.1639270000         0.3623120000
 s    3  1.00
        7.8682724000        -0.1193324000
        1.8812885000        -0.1608542000
        0.5442493000         1.1434564000
 p    3  1.00
        7.8682724000         0.0689991000
        1.8812885000         0.3164240000
        0.5442493000         0.7443083000
 s    1  1.00
        0.1687144000         1.0000000000
 p    1  1.00
        0.1687144000         1.0000000000
 d    1  1.00
        0.8000000000         1.0000000000

  21 0
 s    6  1.00
     3047.5249000000         0.0018347000
      457.3695100000         0.0140373000
      103.9486900000         0.0688426000
       29.2101550000         0.2321844000
        9.2866630000         0.4679413000
        3.1639270000         0.3623120000
 s    3  1.00
        7.8682724000        -0.1193324000
        1.8812885000        -0.1608542000
        0.5442493000         1.1434564000
 p    3  1.00
        7.8682724000         0.0689991000
        1.8812885000         0.3164240000
        0.5442493000         0.7443083000
 s    1  1.00
        0.1687144000         1.0000000000
 p    1  1.00
        0.1687144000         1.0000000000
 d    1  1.00
        0.8000000000         1.0000000000

  22 0
 s    3  1.00
       18.7311370000         0.0334946000
        2.8253937000         0.2347269500
        0.6401217000         0.8137573300
 s    1  1.00
        0.1612778000         1.0000000000

  23 0
 s    3  1.00
       18.7311370000         0.0334946000
        2.8253937000         0.2347269500
        0.6401217000         0.8137573300
 s    1  1.00
        0.1612778000         1.0000000000

  24 0
 s    3  1.00
       18.7311370000         0.0334946000
        2.8253937000         0.2347269500
        0.6401217000         0.8137573300
 s    1  1.00
        0.1612778000         1.0000000000

  25 0
 s    3  1.00
       18.7311370000         0.0334946000
        2.8253937000         0.2347269500
        0.6401217000         0.8137573300
 s    1  1.00
        0.1612778000         1.0000000000

  26 0
 s    3  1.00
       18.7311370000         0.0334946000
        2.8253937000         0.2347269500
        0.6401217000         0.8137573300
 s    1  1.00
        0.1612778000         1.0000000000

  27 0
 s    3  1.00
       18.7311370000         0.0334946000
        2.8253937000         0.2347269500
        0.6401217000         0.8137573300
 s    1  1.00
        0.1612778000         1.0000000000

  28 0
 s    3  1.00
       18.7311370000         0.0334946000
        2.8253937000         0.2347269500
        0.6401217000         0.8137573300
 s    1  1.00
        0.1612778000         1.0000000000

  29 0
 s    3  1.00
       18.7311370000         0.0334946000
        2.8253937000         0.2347269500
        0.6401217000         0.8137573300
 s    1  1.00
        0.1612778000         1.0000000000

  30 0
 s    3  1.00
       18.7311370000         0.0334946000
        2.8253937000         0.2347269500
        0.6401217000         0.8137573300
 s    1  1.00
        0.1612778000         1.0000000000

  31 0
 s    3  1.00
       18.7311370000         0.0334946000
        2.8253937000         0.2347269500
        0.6401217000         0.8137573300
 s    1  1.00
        0.1612778000         1.0000000000

  32 0
 s    3  1.00
       18.7311370000         0.0334946000
        2.8253937000         0.2347269500
        0.6401217000         0.8137573300
 s    1  1.00
        0.1612778000         1.0000000000

[MO]
 Sym= A
 Ene=        -1.0484275223e+02
 Spin= Alpha
 Occup=         2.0000000000e+00
  1         9.9611667863e-01
  2         1.4644915548e-02
  3         1.1341787907e-05
  4        -5.9914119113e-05
  5        -2.8612378517e-07
  6        -1.7739196721e-02
  7        -1.1444937920e-05
  8         6.0682254175e-05
  9         2.8761189153e-07
 10         1.4192157169e-03
 11         5.9101711143e-06
 12        -3.7711849391e-05
 13        -1.6956876466e-07
 14         6.2656626609e-03
 15         6.2676203079e-03
 16         6.2606695612e-03
 17        -1.3228011407e-07
 18        -3.1489226773e-08
 19         3.2578969156e-08
 20         3.8234077559e-07
 21         3.0057550615e-06
 22         1.3033850631e-06
 23        -9.5583276845e-07
 24        -7.9880678422e-09
 25        -1.8582885434e-05
 26        -1.1750587335e-05
 27         9.2756288611e-07
 28         7.2275242048e-08
 29        -4.3087726006e-07
 30         9.3638238013e-07
 31         6.8808296391e-07
 32        -1.3482989160e-06
 33         3.8972817343e-09
 34         1.5084282976e-09
 35        -4.3397686315e-07
 36        -1.9804709715e-06
 37        -4.8513511280e-08
 38        -3.9379354172e-07
 39        -2.1315339762e-08
 40         1.1354771213e-05
 41        -1.7660559477e-06
 42         4.3354128546e-06
 43         1.3394324590e-07
 44        -1.6421045045e-06
 45        -5.3147370395e-07
 46        -1.4376150351e-06
 47        -2.3625820117e-07
 48        -2.0427415931e-08
 49         3.9897871037e-08
 50         2.4795574507e-07
 51         4.8631568189e-08
 52         1.0144715527e-06
 53         1.2799949949e-06
 54         2.3788758365e-08
 55        -5.8899984404e-06
 56        -1.2062968436e-05
 57        -8.1358388906e-06
 58        -1.7274912352e-07
 59         1.1388722479e-06
 60         1.1593769533e-06
 61         4.3656530585e-07
 62         2.6162717946e-07
 63        -1.2638705187e-08
 64        -5.7837703762e-09
 65        -1.5320733391e-07
 66        -5.6968695891e-07
 67        -1.6136816109e-08
 68         6.6777222418e-08
 69         3.8642518892e-09
 70         5.9234454682e-06
 71         3.3658211252e-06
 72        -2.3792152377e-06
 73         2.0464513284e-08
 74         1.0888231991e-08
 75        -4.7123441763e-07
 76        -3.8710929494e-07
 77        -1.3535690567e-07
 78         4.0177921104e-09
 79        -3.0659847774e-09
 80        -2.5276861032e-07
 81        -4.6882008640e-06
 82        -2.4234614105e-06
 83        -3.5775786152e-07
 84         9.5135963098e-09
 85         1.0411064459e-04
 86         1.1740190891e-04
 87         1.6222942450e-04
 88        -1.4049421481e-07
 89         5.1905282303e-06
 90         1.8992196104e-06
 91        -2.4779019875e-08
 92         5.1136726721e-06
 93        -1.8776931297e-08
 94        -2.1136123638e-08
 95         1.1960388394e-06
 96         1.0781014896e-05
 97        -6.9902560333e-06
 98        -5.1761204589e-06
 99         1.9649686974e-08
100        -2.5025637640e-04
101         1.8098547882e-04
102         3.5392136285e-05
103        -8.6089769050e-07
104        -2.2719113023e-06
105        -9.8599038441e-07
106         1.0530764259e-07
107        -1.0541959439e-05
108        -1.5350779742e-08
109         5.9564713674e-08
110        -3.7284700028e-07
111        -3.5053105546e-06
112        -2.1113531041e-06
113         8.9338706029e-07
114         3.7848453834e-08
115         8.7741206394e-06
116         9.1388261764e-05
117        -3.3516568802e-05
118        -7.7149281755e-07
119         1.3302855711e-06
120         1.2685635376e-06
121        -7.3214925032e-07
122         5.5894657621e-07
123        -6.9856584138e-09
124         3.4436463754e-09
125        -3.7191330921e-07
126        -2.3744838779e-06
127         5.8133813637e-07
128         1.4151866430e-06
129         6.4407540356e-11
130         1.1686030930e-04
131        -5.5502332487e-05
132         4.6121017090e-05
133         4.5977015029e-07
134         5.3854123356e-07
135         2.6472318657e-08
136        -5.5450701403e-07
137        -8.8758825802e-07
138        -1.0370815715e-08
139         6.8211886882e-09
140         2.1429349493e-07
141         1.1884026374e-06
142        -5.0628955573e-07
143        -1.4707413758e-06
144        -1.4054234464e-09
145        -9.0435752804e-05
146        -1.9421591634e-05
147        -3.8173580681e-05
148         4.2299482351e-08
149        -1.8527612264e-07
150        -4.8653283155e-08
151         4.0436056622e-08
152         4.7315944621e-07
153         1.8001783709e-09
154         4.7980629005e-09
155        -1.6969023241e-06
156         7.2734614838e-06
157         5.4669690647e-07
158        -4.7813671967e-06
159        -1.4617584389e-08
160         1.4147616090e-04
161         2.2159297819e-05
162        -1.2853656228e-04
163        -6.1388180001e-07
164         4.8320544336e-06
165        -2.9477133735e-05
166        -8.7606451844e-06
167        -1.0556412011e-05
168        -1.2936178291e-07
169        -3.3235336945e-08
170         7.8473030689e-08
171         3.8842705919e-06
172         2.4647970076e-06
173        -2.5528467694e-06
174        -1.9053292672e-08
175        -6.7398247990e-05
176         1.0823520757e-05
177        -3.3632601062e-05
178        -1.7252345077e-07
179        -2.7733352161e-06
180        -3.4991335524e-06
181         1.0772807118e-08
182         1.1775182127e-06
183         2.0227493001e-08
184        -1.8814271777e-08
185        -6.7975798360e-07
186        -3.5915467762e-06
187         8.7715957278e-07
188        -2.9522987060e-07
189        -1.8433430223e-08
190         6.4367113488e-05
191         4.7097638931e-05
192        -4.0629617841e-06
193        -1.3246354380e-07
194         4.1595114249e-07
195        -6.6870667344e-07
196        -1.1810023728e-06
197         3.8166125726e-07
198        -2.6337335908e-08
199         2.4441073834e-08
200        -1.9045635650e-07
201        -6.1676318862e-07
202        -2.7738246170e-07
203         4.7584396727e-07
204        -2.1711863551e-08
205        -8.8511857014e-07
206         3.0216004160e-07
207         8.0633797885e-06
208         1.2012004809e-07
209        -1.7884175456e-07
210        -5.4585179568e-07
211        -4.2697111820e-07
212         4.1774860338e-07
213         3.7332918612e-09
214         4.8256365197e-09
215         7.7694556404e-06
216         9.6015071243e-05
217        -5.6430805849e-06
218         2.6216327234e-05
219         1.2781514250e-07
220        -1.1195912643e-04
221        -3.3089493846e-05
222         1.7918461762e-04
223         8.7932657290e-07
224         3.1040547672e-05
225        -5.0301012492e-05
226        -2.3200970994e-06
227         1.8618219064e-05
228        -1.3363274745e-07
229        -3.0570416563e-07
230        -1.8942459776e-07
231         1.3567479820e-06
232         3.3341122471e-06
233        -5.1459145060e-06
234        -3.5675967195e-08
235        -9.7056263455e-05
236        -7.8359422851e-06
237        -4.4661492075e-05
238        -9.5048927109e-08
239        -3.3965374162e-06
240         4.0940551622e-06
241        -2.4394139303e-06
242         3.4897946004e-06
243         1.6560142772e-08
244         1.2062672087e-08
245        -1.4959263382e-06
246         8.0373587196e-06
247         4.3703328986e-07
248        -2.9894462772e-06
249        -1.0086007971e-08
250         1.2466655653e-04
251        -9.5215677929e-06
252        -1.4242476945e-04
253        -5.0546281758e-07
254        -7.2335595413e-06
255        -1.7086757003e-05
256        -8.5381656942e-06
257         2.4283380892e-05
258         8.9281922784e-08
259        -1.6037784450e-07
260        -3.7073047424e-08
261        -1.7066279700e-07
262         9.8790391411e-08
263        -2.0978727592e-07
264         5.1001433234e-09
265        -9.3433670105e-07
266        -3.1398474698e-06
267         5.3365203760e-06
268        -3.3793392154e-08
269         1.4806697901e-07
270        -8.9993351383e-08
271        -1.0009897505e-07
272        -5.2466043573e-08
273         5.7711300896e-09
274         3.4616855135e-09
275        -1.4905937472e-07
276        -4.9008792647e-07
277        -2.5859863957e-07
278         2.6922755237e-07
279        -1.3672521477e-08
280         1.6941457879e-06
281         9.0479086760e-06
282        -3.2323385933e-06
283         1.3953734917e-07
284        -4.2865229897e-07
285        -1.6397719759e-07
286        -3.4383767069e-07
287         1.7310115739e-07
288        -1.5785064247e-09
289         1.4430054144e-09
290         3.9379335018e-08
291         2.3822154195e-07
292        -1.6471913055e-08
293         4.3035741625e-08
294         8.7149342417e-11
295        -3.0602279662e-06
296        -3.4019659472e-06
297         3.8118791792e-09
298        -4.6761332931e-08
299        -1.1561133615e-07
300         2.6151442470e-08
301         9.9849158637e-08
302         6.5645038494e-08
303        -1.8157172674e-09
304        -1.5823649822e-10
305        -2.1666207237e-08
306        -1.2177397534e-07
307        -5.8588356917e-08
308         4.0044952792e-08
309         8.4452806108e-10
310         3.1939809680e-07
311        -7.5445664104e-08
312        -2.3369627013e-06
313        -2.3112622882e-08
314        -2.8262013100e-08
315         1.2666187377e-07
316        -8.4644042926e-08
317        -6.0108371713e-09
318         3.2844200597e-10
319         5.6162871854e-10
320         2.2179791901e-06
321         2.1271809821e-05
322        -7.3655088998e-07
323        -7.8354324897e-06
324         9.6104002033e-06
325        -3.6227403246e-05
326        -2.6274833007e-07